 Entering Gaussian System, Link 0=g98
 Initial command:
 /usr/local/g98/l1.exe /home/fyd/0QM_SCR/Gau-22002.inp -scrdir=/home/fyd/0QM_SCR/
 Entering Link 1 = /usr/local/g98/l1.exe PID=     22003.
  
 Copyright (c) 1988,1990,1992,1993,1995,1998 Gaussian, Inc.
                  All Rights Reserved.
  
 This is part of the Gaussian(R) 98 program.  It is based on
 the Gaussian 94(TM) system (copyright 1995 Gaussian, Inc.),
 the Gaussian 92(TM) system (copyright 1992 Gaussian, Inc.),
 the Gaussian 90(TM) system (copyright 1990 Gaussian, Inc.),
 the Gaussian 88(TM) system (copyright 1988 Gaussian, Inc.),
 the Gaussian 86(TM) system (copyright 1986 Carnegie Mellon
 University), and the Gaussian 82(TM) system (copyright 1983
 Carnegie Mellon University). Gaussian is a federally registered
 trademark of Gaussian, Inc.
  
 This software contains proprietary and confidential information,
 including trade secrets, belonging to Gaussian, Inc.
  
 This software is provided under written license and may be
 used, copied, transmitted, or stored only in accord with that
 written license.
  
 The following legend is applicable only to US Government
 contracts under DFARS:
  
                    RESTRICTED RIGHTS LEGEND
  
 Use, duplication or disclosure by the US Government is subject
 to restrictions as set forth in subparagraph (c)(1)(ii) of the
 Rights in Technical Data and Computer Software clause at DFARS
 252.227-7013.
  
 Gaussian, Inc.
 Carnegie Office Park, Building 6, Pittsburgh, PA 15106 USA
  
 The following legend is applicable only to US Government
 contracts under FAR:
  
                    RESTRICTED RIGHTS LEGEND
  
 Use, reproduction and disclosure by the US Government is subject
 to restrictions as set forth in subparagraph (c) of the
 Commercial Computer Software - Restricted Rights clause at FAR
 52.227-19.
  
 Gaussian, Inc.
 Carnegie Office Park, Building 6, Pittsburgh, PA 15106 USA
  
  
 ---------------------------------------------------------------
 Warning -- This program may not be used in any manner that
 competes with the business of Gaussian, Inc. or will provide
 assistance to any competitor of Gaussian, Inc.  The licensee
 of this program is prohibited from giving any competitor of
 Gaussian, Inc. access to this program.  By using this program,
 the user acknowledges that Gaussian, Inc. is engaged in the
 business of creating and licensing software in the field of
 computational chemistry and represents and warrants to the
 licensee that it is not a competitor of Gaussian, Inc. and that
 it will not use this program in any manner prohibited above.
 ---------------------------------------------------------------
  

 Cite this work as:
 Gaussian 98, Revision A.11.4,
 M. J. Frisch, G. W. Trucks, H. B. Schlegel, G. E. Scuseria, 
 M. A. Robb, J. R. Cheeseman, V. G. Zakrzewski, J. A. Montgomery, Jr., 
 R. E. Stratmann, J. C. Burant, S. Dapprich, J. M. Millam, 
 A. D. Daniels, K. N. Kudin, M. C. Strain, O. Farkas, J. Tomasi, 
 V. Barone, M. Cossi, R. Cammi, B. Mennucci, C. Pomelli, C. Adamo, 
 S. Clifford, J. Ochterski, G. A. Petersson, P. Y. Ayala, Q. Cui, 
 K. Morokuma, N. Rega, P. Salvador, J. J. Dannenberg, D. K. Malick, 
 A. D. Rabuck, K. Raghavachari, J. B. Foresman, J. Cioslowski, 
 J. V. Ortiz, A. G. Baboul, B. B. Stefanov, G. Liu, A. Liashenko, 
 P. Piskorz, I. Komaromi, R. Gomperts, R. L. Martin, D. J. Fox, 
 T. Keith, M. A. Al-Laham, C. Y. Peng, A. Nanayakkara, M. Challacombe, 
 P. M. W. Gill, B. Johnson, W. Chen, M. W. Wong, J. L. Andres, 
 C. Gonzalez, M. Head-Gordon, E. S. Replogle, and J. A. Pople, 
 Gaussian, Inc., Pittsburgh PA, 2002.

 ***********************************************
 Gaussian 98:  x86-Linux-G98RevA.11.4 7-May-2002
                   12-Feb-2006 
 ***********************************************
 %Mem=128MB
 %NProc=1
 Will use up to    1 processors via shared memory.
 --------------------------------------------------------
 #P hf/6-31G* Opt=(VTight,CalcFC) Freq SCF(Conver=8) Test
 --------------------------------------------------------
 1/7=1,10=4,18=20,38=1/1,3;
 2/9=110,17=6,18=5,40=1/2;
 3/5=1,6=6,7=1,11=9,25=1,30=1/1,2,3;
 4//1;
 5/5=2,6=8,38=4/2;
 8/6=4,11=11,23=2/1;
 11/6=1,8=1,9=11,15=111,16=11/1,2,10;
 10/6=1,7=6/2;
 6/7=2,8=2,9=2,10=2,28=1/1;
 7/10=1,18=20,25=1/1,2,3,16;
 1/10=4,18=20/3(1);
 99//99;
 2/9=110/2;
 3/5=1,6=6,7=1,11=9,25=1,30=1/1,2,3;
 4/5=5,16=2/1;
 5/5=2,6=8,38=4/2;
 7//1,2,3,16;
 1/18=20/3(-5);
 2/9=110/2;
 6/7=2,8=2,9=2,10=2,19=2,28=1/1;
 99/9=1/99;
 Leave Link    1 at Sun Feb 12 20:09:09 2006, MaxMem=   16777216 cpu:       0.1
 (Enter /usr/local/g98/l101.exe)
 ---------------------------
 Optimization used by R.E.D.
 ---------------------------
 Symbolic Z-matrix:
 Charge =  0 Multiplicity = 1
 C                    -3.285     1.356     0.006 
 H                    -2.8       2.297    -0.225 
 H                    -4.081     1.175    -0.704 
 H                    -3.73      1.426     0.993 
 C                    -2.342     0.17     -0.012 
 O                    -2.768    -0.957    -0.006 
 N                    -1.031     0.481    -0.015 
 H                    -0.752     1.437    -0.019 
 C                     0.07     -0.47      0.001 
 C                     0.04     -1.352    -1.26 
 H                    -0.895    -1.891    -1.299 
 H                     0.128    -0.741    -2.152 
 H                     0.849    -2.075    -1.261 
 C                     0.031    -1.324     1.281 
 H                     0.841    -2.045     1.305 
 H                     0.11     -0.692     2.159 
 H                    -0.904    -1.863     1.323 
 C                     1.343     0.401    -0.003 
 O                     1.289     1.605    -0.011 
 N                     2.518    -0.251     0.004 
 H                     2.534    -1.242     0.009 
 C                     3.777     0.467     0.002 
 H                     3.867     1.086    -0.881 
 H                     3.861     1.101     0.875 
 H                     4.582    -0.255     0.011 
 Leave Link  101 at Sun Feb 12 20:09:09 2006, MaxMem=   16777216 cpu:       0.1
 (Enter /usr/local/g98/l103.exe)

 GradGradGradGradGradGradGradGradGradGradGradGradGradGradGradGradGradGrad
 Berny optimization.
 Initialization pass.
                         ----------------------------
                         !    Initial Parameters    !
                         ! (Angstroms and Degrees)  !
 ------------------------                            -------------------------
 ! Name  Definition              Value          Derivative Info.             !
 -----------------------------------------------------------------------------
 ! R1    R(1,2)                  1.0835         calculate D2E/DX2 analyticall!
 ! R2    R(1,3)                  1.0819         calculate D2E/DX2 analyticall!
 ! R3    R(1,4)                  1.0849         calculate D2E/DX2 analyticall!
 ! R4    R(1,5)                  1.5153         calculate D2E/DX2 analyticall!
 ! R5    R(5,6)                  1.2048         calculate D2E/DX2 analyticall!
 ! R6    R(5,7)                  1.3474         calculate D2E/DX2 analyticall!
 ! R7    R(7,8)                  0.9959         calculate D2E/DX2 analyticall!
 ! R8    R(7,9)                  1.4549         calculate D2E/DX2 analyticall!
 ! R9    R(9,10)                 1.5391         calculate D2E/DX2 analyticall!
 ! R10   R(9,14)                 1.5392         calculate D2E/DX2 analyticall!
 ! R11   R(9,18)                 1.5425         calculate D2E/DX2 analyticall!
 ! R12   R(10,11)                1.0799         calculate D2E/DX2 analyticall!
 ! R13   R(10,12)                1.0848         calculate D2E/DX2 analyticall!
 ! R14   R(10,13)                1.085          calculate D2E/DX2 analyticall!
 ! R15   R(14,15)                1.0847         calculate D2E/DX2 analyticall!
 ! R16   R(14,16)                1.0847         calculate D2E/DX2 analyticall!
 ! R17   R(14,17)                1.0801         calculate D2E/DX2 analyticall!
 ! R18   R(18,19)                1.2052         calculate D2E/DX2 analyticall!
 ! R19   R(18,20)                1.3438         calculate D2E/DX2 analyticall!
 ! R20   R(20,21)                0.9911         calculate D2E/DX2 analyticall!
 ! R21   R(20,22)                1.4493         calculate D2E/DX2 analyticall!
 ! R22   R(22,23)                1.0821         calculate D2E/DX2 analyticall!
 ! R23   R(22,24)                1.0822         calculate D2E/DX2 analyticall!
 ! R24   R(22,25)                1.0814         calculate D2E/DX2 analyticall!
 ! A1    A(2,1,3)              109.5549         calculate D2E/DX2 analyticall!
 ! A2    A(2,1,4)              108.7538         calculate D2E/DX2 analyticall!
 ! A3    A(2,1,5)              113.4926         calculate D2E/DX2 analyticall!
 ! A4    A(3,1,4)              107.8205         calculate D2E/DX2 analyticall!
 ! A5    A(3,1,5)              108.6104         calculate D2E/DX2 analyticall!
 ! A6    A(4,1,5)              108.4546         calculate D2E/DX2 analyticall!
 ! A7    A(1,5,6)              120.7983         calculate D2E/DX2 analyticall!
 ! A8    A(1,5,7)              115.143          calculate D2E/DX2 analyticall!
 ! A9    A(6,5,7)              124.0517         calculate D2E/DX2 analyticall!
 ! A10   A(5,7,8)              119.6149         calculate D2E/DX2 analyticall!
 ! A11   A(5,7,9)              125.8313         calculate D2E/DX2 analyticall!
 ! A12   A(8,7,9)              114.5507         calculate D2E/DX2 analyticall!
 ! A13   A(7,9,10)             110.5365         calculate D2E/DX2 analyticall!
 ! A14   A(7,9,14)             110.6478         calculate D2E/DX2 analyticall!
 ! A15   A(7,9,18)             104.7979         calculate D2E/DX2 analyticall!
 ! A16   A(10,9,14)            111.2768         calculate D2E/DX2 analyticall!
 ! A17   A(10,9,18)            109.7278         calculate D2E/DX2 analyticall!
 ! A18   A(14,9,18)            109.6556         calculate D2E/DX2 analyticall!
 ! A19   A(9,10,11)            109.4189         calculate D2E/DX2 analyticall!
 ! A20   A(9,10,12)            110.4472         calculate D2E/DX2 analyticall!
 ! A21   A(9,10,13)            111.5973         calculate D2E/DX2 analyticall!
 ! A22   A(11,10,12)           108.7634         calculate D2E/DX2 analyticall!
 ! A23   A(11,10,13)           108.2364         calculate D2E/DX2 analyticall!
 ! A24   A(12,10,13)           108.3056         calculate D2E/DX2 analyticall!
 ! A25   A(9,14,15)            111.6095         calculate D2E/DX2 analyticall!
 ! A26   A(9,14,16)            110.3656         calculate D2E/DX2 analyticall!
 ! A27   A(9,14,17)            109.339          calculate D2E/DX2 analyticall!
 ! A28   A(15,14,16)           108.3609         calculate D2E/DX2 analyticall!
 ! A29   A(15,14,17)           108.2938         calculate D2E/DX2 analyticall!
 ! A30   A(16,14,17)           108.805          calculate D2E/DX2 analyticall!
 ! A31   A(9,18,19)            121.8126         calculate D2E/DX2 analyticall!
 ! A32   A(9,18,20)            116.5927         calculate D2E/DX2 analyticall!
 ! A33   A(19,18,20)           121.5947         calculate D2E/DX2 analyticall!
 ! A34   A(18,20,21)           119.9515         calculate D2E/DX2 analyticall!
 ! A35   A(18,20,22)           121.2776         calculate D2E/DX2 analyticall!
 ! A36   A(21,20,22)           118.7709         calculate D2E/DX2 analyticall!
 ! A37   A(20,22,23)           110.9012         calculate D2E/DX2 analyticall!
 ! A38   A(20,22,24)           110.8878         calculate D2E/DX2 analyticall!
 ! A39   A(20,22,25)           108.414          calculate D2E/DX2 analyticall!
 ! A40   A(23,22,24)           108.4626         calculate D2E/DX2 analyticall!
 ! A41   A(23,22,25)           109.0748         calculate D2E/DX2 analyticall!
 ! A42   A(24,22,25)           109.0658         calculate D2E/DX2 analyticall!
 ! D1    D(2,1,5,6)           -166.9908         calculate D2E/DX2 analyticall!
 ! D2    D(2,1,5,7)             13.9257         calculate D2E/DX2 analyticall!
 ! D3    D(3,1,5,6)            -44.8864         calculate D2E/DX2 analyticall!
 ! D4    D(3,1,5,7)            136.0301         calculate D2E/DX2 analyticall!
 ! D5    D(4,1,5,6)             72.0373         calculate D2E/DX2 analyticall!
 ! D6    D(4,1,5,7)           -107.0462         calculate D2E/DX2 analyticall!
 ! D7    D(1,5,7,8)             -0.8842         calculate D2E/DX2 analyticall!
 ! D8    D(1,5,7,9)            178.4387         calculate D2E/DX2 analyticall!
 ! D9    D(6,5,7,8)           -179.934          calculate D2E/DX2 analyticall!
 ! D10   D(6,5,7,9)             -0.6111         calculate D2E/DX2 analyticall!
 ! D11   D(5,7,9,10)            62.1419         calculate D2E/DX2 analyticall!
 ! D12   D(5,7,9,14)           -61.587          calculate D2E/DX2 analyticall!
 ! D13   D(5,7,9,18)          -179.7078         calculate D2E/DX2 analyticall!
 ! D14   D(8,7,9,10)          -118.5053         calculate D2E/DX2 analyticall!
 ! D15   D(8,7,9,14)           117.7659         calculate D2E/DX2 analyticall!
 ! D16   D(8,7,9,18)            -0.355          calculate D2E/DX2 analyticall!
 ! D17   D(7,9,10,11)          -59.6713         calculate D2E/DX2 analyticall!
 ! D18   D(7,9,10,12)           60.0269         calculate D2E/DX2 analyticall!
 ! D19   D(7,9,10,13)         -179.435          calculate D2E/DX2 analyticall!
 ! D20   D(14,9,10,11)          63.6941         calculate D2E/DX2 analyticall!
 ! D21   D(14,9,10,12)        -176.6077         calculate D2E/DX2 analyticall!
 ! D22   D(14,9,10,13)         -56.0696         calculate D2E/DX2 analyticall!
 ! D23   D(18,9,10,11)        -174.764          calculate D2E/DX2 analyticall!
 ! D24   D(18,9,10,12)         -55.0658         calculate D2E/DX2 analyticall!
 ! D25   D(18,9,10,13)          65.4723         calculate D2E/DX2 analyticall!
 ! D26   D(7,9,14,15)          179.5078         calculate D2E/DX2 analyticall!
 ! D27   D(7,9,14,16)          -59.9316         calculate D2E/DX2 analyticall!
 ! D28   D(7,9,14,17)           59.7173         calculate D2E/DX2 analyticall!
 ! D29   D(10,9,14,15)          56.2059         calculate D2E/DX2 analyticall!
 ! D30   D(10,9,14,16)         176.7666         calculate D2E/DX2 analyticall!
 ! D31   D(10,9,14,17)         -63.5846         calculate D2E/DX2 analyticall!
 ! D32   D(18,9,14,15)         -65.378          calculate D2E/DX2 analyticall!
 ! D33   D(18,9,14,16)          55.1826         calculate D2E/DX2 analyticall!
 ! D34   D(18,9,14,17)         174.8315         calculate D2E/DX2 analyticall!
 ! D35   D(7,9,18,19)            0.3356         calculate D2E/DX2 analyticall!
 ! D36   D(7,9,18,20)         -179.7172         calculate D2E/DX2 analyticall!
 ! D37   D(10,9,18,19)         119.0337         calculate D2E/DX2 analyticall!
 ! D38   D(10,9,18,20)         -61.0191         calculate D2E/DX2 analyticall!
 ! D39   D(14,9,18,19)        -118.457          calculate D2E/DX2 analyticall!
 ! D40   D(14,9,18,20)          61.4902         calculate D2E/DX2 analyticall!
 ! D41   D(9,18,20,21)           0.154          calculate D2E/DX2 analyticall!
 ! D42   D(9,18,20,22)        -179.9582         calculate D2E/DX2 analyticall!
 ! D43   D(19,18,20,21)       -179.8987         calculate D2E/DX2 analyticall!
 ! D44   D(19,18,20,22)         -0.0109         calculate D2E/DX2 analyticall!
 ! D45   D(18,20,22,23)        -60.4065         calculate D2E/DX2 analyticall!
 ! D46   D(18,20,22,24)         60.1623         calculate D2E/DX2 analyticall!
 ! D47   D(18,20,22,25)        179.8683         calculate D2E/DX2 analyticall!
 ! D48   D(21,20,22,23)        119.4826         calculate D2E/DX2 analyticall!
 ! D49   D(21,20,22,24)       -119.9486         calculate D2E/DX2 analyticall!
 ! D50   D(21,20,22,25)         -0.2426         calculate D2E/DX2 analyticall!
 -----------------------------------------------------------------------------
 Trust Radius=3.00D-01 FncErr=1.00D-07 GrdErr=1.00D-07
 Number of steps in this run= 126 maximum allowed number of steps= 150.
 GradGradGradGradGradGradGradGradGradGradGradGradGradGradGradGradGradGrad

 Leave Link  103 at Sun Feb 12 20:09:09 2006, MaxMem=   16777216 cpu:       0.0
 (Enter /usr/local/g98/l202.exe)
                          Input orientation:                          
 ---------------------------------------------------------------------
 Center     Atomic     Atomic              Coordinates (Angstroms)
 Number     Number      Type              X           Y           Z
 ---------------------------------------------------------------------
    1          6             0       -3.285000    1.356000    0.006000
    2          1             0       -2.800000    2.297000   -0.225000
    3          1             0       -4.081000    1.175000   -0.704000
    4          1             0       -3.730000    1.426000    0.993000
    5          6             0       -2.342000    0.170000   -0.012000
    6          8             0       -2.768000   -0.957000   -0.006000
    7          7             0       -1.031000    0.481000   -0.015000
    8          1             0       -0.752000    1.437000   -0.019000
    9          6             0        0.070000   -0.470000    0.001000
   10          6             0        0.040000   -1.352000   -1.260000
   11          1             0       -0.895000   -1.891000   -1.299000
   12          1             0        0.128000   -0.741000   -2.152000
   13          1             0        0.849000   -2.075000   -1.261000
   14          6             0        0.031000   -1.324000    1.281000
   15          1             0        0.841000   -2.045000    1.305000
   16          1             0        0.110000   -0.692000    2.159000
   17          1             0       -0.904000   -1.863000    1.323000
   18          6             0        1.343000    0.401000   -0.003000
   19          8             0        1.289000    1.605000   -0.011000
   20          7             0        2.518000   -0.251000    0.004000
   21          1             0        2.534000   -1.242000    0.009000
   22          6             0        3.777000    0.467000    0.002000
   23          1             0        3.867000    1.086000   -0.881000
   24          1             0        3.861000    1.101000    0.875000
   25          1             0        4.582000   -0.255000    0.011000
 ---------------------------------------------------------------------
                    Distance matrix (angstroms):
                    1          2          3          4          5
     1  C    0.000000
     2  H    1.083544   0.000000
     3  H    1.081886   1.768979   0.000000
     4  H    1.084940   1.762687   1.751003   0.000000
     5  C    1.515312   2.186152   2.124385   2.124642   0.000000
     6  O    2.370106   3.261518   2.599345   2.757197   1.204841
     7  N    2.417971   2.543878   3.202945   3.032110   1.347387
     8  H    2.534418   2.230771   3.408828   3.145274   2.033086
     9  C    3.819729   3.993027   4.520382   4.361064   2.495499
    10  C    4.471202   4.738357   4.865954   5.196748   3.089970
    11  H    4.237704   4.724600   4.461499   4.928791   2.828056
    12  H    4.550049   4.638530   4.845972   5.428727   3.392701
    13  H    5.519693   5.788167   5.931075   6.189084   4.096646
    14  C    4.450155   4.836759   5.205168   4.668037   3.087882
    15  H    5.502552   5.869476   6.215349   5.747976   4.095388
    16  H    4.511733   4.804756   5.408044   4.537740   3.386531
    17  H    4.214927   4.826668   4.840610   4.348873   2.825448
    18  C    4.725515   4.561639   5.523609   5.270481   3.692244
    19  O    4.580804   4.152660   5.431579   5.121564   3.904278
    20  N    6.021400   5.901345   6.788339   6.544307   4.878227
    21  H    6.372627   6.405531   7.078735   6.879257   5.076373
    22  C    7.117737   6.830619   7.921355   7.632615   6.126220
    23  H    7.211849   6.807771   7.950469   7.832106   6.336079
    24  H    7.203159   6.856336   8.097782   7.598870   6.334883
    25  H    8.030257   7.814239   8.809296   8.536945   6.937069
                    6          7          8          9         10
     6  O    0.000000
     7  N    2.255015   0.000000
     8  H    3.129802   0.995888   0.000000
     9  C    2.879490   1.454943   2.076712   0.000000
    10  C    3.100549   2.461088   3.153707   1.539138   0.000000
    11  H    2.460149   2.700655   3.568534   2.154174   1.079938
    12  H    3.610926   2.720907   3.172975   2.170763   1.084771
    13  H    3.988438   3.408820   4.054616   2.185294   1.084994
    14  C    3.102492   2.462821   3.150589   1.539233   2.541170
    15  H    3.990908   3.409906   4.051537   2.185288   2.775081
    16  H    3.611140   2.721045   3.165339   2.169758   3.482824
    17  H    2.462026   2.701982   3.565679   2.153325   2.797167
    18  C    4.329491   2.375378   2.337216   1.542461   2.520093
    19  O    4.798241   2.577943   2.047918   2.406601   3.444394
    20  N    5.332948   3.623753   3.680051   2.457778   2.991719
    21  H    5.309676   3.959612   4.239767   2.582120   2.800446
    22  C    6.698124   4.808050   4.631758   3.823587   4.343567
    23  H    6.997335   5.010627   4.711837   4.197174   4.553396
    24  H    6.996797   5.010805   4.710828   4.195664   5.017517
    25  H    7.383468   5.661108   5.596009   4.517131   4.842377
                   11         12         13         14         15
    11  H    0.000000
    12  H    1.759727   0.000000
    13  H    1.754091   1.758772   0.000000
    14  C    2.799172   3.483502   2.773966   0.000000
    15  H    3.133405   3.762929   2.566188   1.084674   0.000000
    16  H    3.795443   4.311316   3.762341   1.084688   1.759058
    17  H    2.622165   3.794672   3.129698   1.080051   1.754558
    18  C    3.455651   2.720035   2.820847   2.519052   2.818827
    19  O    4.318659   3.381644   3.911330   3.439603   3.905773
    20  N    4.004495   3.255846   2.777186   2.994533   2.779094
    21  H    3.726943   3.272577   2.268483   2.808864   2.278305
    22  C    5.392620   4.406153   4.078004   4.344656   4.077750
    23  H    5.631509   4.351263   4.386872   5.019685   4.872210
    24  H    6.024772   5.146939   4.870484   4.551303   4.382079
    25  H    5.864309   4.975227   4.343463   4.844302   4.344378
                   16         17         18         19         20
    16  H    0.000000
    17  H    1.760208   0.000000
    18  C    2.718305   3.454415   0.000000
    19  O    3.372707   4.314606   1.205237   0.000000
    20  N    3.261437   4.006044   1.343792   2.226073   0.000000
    21  H    3.286453   3.732570   2.029304   3.107384   0.991142
    22  C    4.409401   5.393116   2.434900   2.735938   1.449348
    23  H    5.149557   6.026330   2.758747   2.769900   2.095375
    24  H    4.351265   5.629496   2.757029   2.766622   2.095279
    25  H    4.980327   5.865424   3.304792   3.782054   2.064016
                   21         22         23         24         25
    21  H    0.000000
    22  C    2.113239   0.000000
    23  H    2.826406   1.082104   0.000000
    24  H    2.828522   1.082193   1.756074   0.000000
    25  H    2.273428   1.081383   1.762149   1.762122   0.000000
 Stoichiometry    C7H14N2O2
 Framework group  C1[X(C7H14N2O2)]
 Deg. of freedom   69
 Full point group                 C1      NOp   1
 Largest Abelian subgroup         C1      NOp   1
 Largest concise Abelian subgroup C1      NOp   1
                         Standard orientation:                         
 ---------------------------------------------------------------------
 Center     Atomic     Atomic              Coordinates (Angstroms)
 Number     Number      Type              X           Y           Z
 ---------------------------------------------------------------------
    1          6             0       -3.284852    1.356105    0.005872
    2          1             0       -2.799822    2.297090   -0.225128
    3          1             0       -4.080858    1.175131   -0.704128
    4          1             0       -3.729850    1.426120    0.992872
    5          6             0       -2.341890    0.170075   -0.012128
    6          8             0       -2.767926   -0.956911   -0.006128
    7          7             0       -1.030880    0.481033   -0.015128
    8          1             0       -0.751849    1.437024   -0.019128
    9          6             0        0.070090   -0.470002    0.000872
   10          6             0        0.040061   -1.352001   -1.260128
   11          1             0       -0.894956   -1.890971   -1.299128
   12          1             0        0.128081   -0.741004   -2.152128
   13          1             0        0.849038   -2.075027   -1.261128
   14          6             0        0.031062   -1.324001    1.280872
   15          1             0        0.841039   -2.045027    1.304872
   16          1             0        0.110082   -0.692004    2.158872
   17          1             0       -0.903955   -1.862971    1.322872
   18          6             0        1.343118    0.400957   -0.003128
   19          8             0        1.289156    1.604959   -0.011128
   20          7             0        2.518097   -0.251081    0.003872
   21          1             0        2.534065   -1.242081    0.008872
   22          6             0        3.777120    0.466879    0.001872
   23          1             0        3.867140    1.085876   -0.881128
   24          1             0        3.861140    1.100876    0.874872
   25          1             0        4.582096   -0.255147    0.010872
 ---------------------------------------------------------------------
 Rotational constants (GHZ):      2.2789861      0.6322177      0.5583466
 Isotopes: C-12,H-1,H-1,H-1,C-12,O-16,N-14,H-1,C-12,C-12,H-1,H-1,H-1,C-12,H-1,H-1
 ,H-1,C-12,O-16,N-14,H-1,C-12,H-1,H-1,H-1
 Leave Link  202 at Sun Feb 12 20:09:09 2006, MaxMem=   16777216 cpu:       0.0
 (Enter /usr/local/g98/l301.exe)
 Standard basis: 6-31G(d) (6D, 7F)
 There are   193 symmetry adapted basis functions of A   symmetry.
 Crude estimate of integral set expansion from redundant integrals=1.000.
 Integral buffers will be    262144 words long.
 Raffenetti 1 integral format.
 Two-electron integral symmetry is turned on.
   193 basis functions      364 primitive gaussians
    43 alpha electrons       43 beta electrons
       nuclear repulsion energy       667.3693754029 Hartrees.
 Leave Link  301 at Sun Feb 12 20:09:09 2006, MaxMem=   16777216 cpu:       0.0
 (Enter /usr/local/g98/l302.exe)
 One-electron integrals computed using PRISM.
 NBasis=   193 RedAO= T  NBF=   193
 NBsUse=   193 1.00D-04 NBFU=   193
 Leave Link  302 at Sun Feb 12 20:09:10 2006, MaxMem=   16777216 cpu:       0.8
 (Enter /usr/local/g98/l303.exe)
 DipDrv:  MaxL=1.
 Leave Link  303 at Sun Feb 12 20:09:10 2006, MaxMem=   16777216 cpu:       0.3
 (Enter /usr/local/g98/l401.exe)
 Projected INDO Guess.
 Leave Link  401 at Sun Feb 12 20:09:11 2006, MaxMem=   16777216 cpu:       0.7
 (Enter /usr/local/g98/l502.exe)
 IExCor=   0 DFT=F Ex=HF Corr=None ScaHFX= 1.0000
 ScaDFX=  0.0000  0.0000  0.0000  0.0000
 IRadAn=      0 IRanWt=     -1 IRanGd=            0 ICorTp=0
 Using DIIS extrapolation.
 Closed shell SCF:
 Requested convergence on RMS density matrix=1.00D-08 within  64 cycles.
 Requested convergence on MAX density matrix=1.00D-06.
 Integral symmetry usage will be decided dynamically.
 IEnd=    127088 IEndB=    127088 NGot=  16777216 MDV=  16691795
 LenX=  16691795
 Fock matrices will be formed incrementally for  20 cycles.
 Integral accuracy reduced to 1.0D-05 until final iterations.

 Cycle   1  Pass 0  IDiag 1:
 Petite list used in FoFDir.
 MinBra= 0 MaxBra= 2 Meth= 1.
 IRaf=       0 NMat=   1 IRICut=       1 DoRegI=T DoRafI=F ISym2E= 1 JSym2E=1.
 E=-0.119687605934522D+04
 DIIS: error= 3.01D-01 at cycle   1.
 T= 2880. Gap= 0.534 NK=0 IS=    1 IE=  193
          NO(<0.9)=   0  NV(>0.1)=   0  43.00e < EF 0.00e >EF  Err=1.3D-12
 RMSDP=7.23D-03 MaxDP=1.73D-01

 Cycle   2  Pass 0  IDiag 1:
 RMSU=  6.91D-03    CP:  9.15D-01
 E=-0.119912828296324D+04 Delta-E=       -2.252223618018
 DIIS: error= 4.30D-02 at cycle   2.
 Coeff: 0.218D-01-0.102D+01
 T= 2678. Gap= 0.571 NK=0 IS=    1 IE=  193
          NO(<0.9)=   0  NV(>0.1)=   0  43.00e < EF 0.00e >EF  Err=4.4D-11
 RMSDP=2.21D-03 MaxDP=8.41D-02

 Cycle   3  Pass 0  IDiag 1:
 RMSU=  2.20D-03    CP:  9.11D-01  9.75D-01
 E=-0.119920434931314D+04 Delta-E=       -0.076066349898
 DIIS: error= 3.09D-02 at cycle   3.
 Coeff: 0.237D-01-0.422D+00-0.602D+00
 T= 2352. Gap= 0.575 NK=0 IS=    1 IE=  193
          NO(<0.9)=   0  NV(>0.1)=   0  43.00e < EF 0.00e >EF  Err=0.0D+00
 RMSDP=1.16D-03 MaxDP=4.24D-02

 Cycle   4  Pass 0  IDiag 1:
 RMSU=  7.09D-04    CP:  9.07D-01  1.06D+00  6.92D-01
 E=-0.119925885241660D+04 Delta-E=       -0.054503103463
 DIIS: error= 4.09D-03 at cycle   4.
 Coeff:-0.450D-02 0.107D+00 0.113D+00-0.122D+01
 T= 1410. Gap= 0.572 NK=0 IS=    1 IE=  193
          NO(<0.9)=   0  NV(>0.1)=   0  43.00e < EF 0.00e >EF  Err=0.0D+00
 RMSDP=4.10D-04 MaxDP=1.51D-02

 Cycle   5  Pass 0  IDiag 1:
 RMSU=  1.69D-04    CP:  9.05D-01  1.08D+00  7.53D-01  1.44D+00
 E=-0.119926141507759D+04 Delta-E=       -0.002562660989
 DIIS: error= 1.60D-03 at cycle   5.
 Coeff:-0.313D-02 0.607D-01 0.840D-01-0.297D+00-0.845D+00
 T=  956. Gap= 0.574 NK=0 IS=    1 IE=  193
          NO(<0.9)=   0  NV(>0.1)=   0  43.00e < EF 0.00e >EF  Err=0.0D+00
 RMSDP=1.40D-04 MaxDP=3.32D-03

 Cycle   6  Pass 0  IDiag 1:
 RMSU=  6.41D-05    CP:  9.05D-01  1.09D+00  7.59D-01  1.60D+00  1.12D+00
 E=-0.119926176709338D+04 Delta-E=       -0.000352015790
 DIIS: error= 4.99D-04 at cycle   6.
 Coeff: 0.104D-02-0.228D-01-0.217D-01 0.194D+00 0.141D+00-0.129D+01
 RMSDP=7.79D-05 MaxDP=2.24D-03

 Cycle   7  Pass 0  IDiag 1:
 RMSU=  2.14D-05    CP:  9.04D-01  1.09D+00  7.62D-01  1.67D+00  1.36D+00
                    CP:  1.50D+00
 E=-0.119926184327394D+04 Delta-E=       -0.000076180563
 DIIS: error= 2.03D-04 at cycle   7.
 Coeff: 0.160D-03-0.322D-02-0.225D-02-0.739D-04 0.811D-01 0.687D-01
 Coeff:-0.114D+01
 RMSDP=2.28D-05 MaxDP=6.64D-04

 Cycle   8  Pass 0  IDiag 1:
 RMSU=  7.46D-06    CP:  9.04D-01  1.09D+00  7.61D-01  1.69D+00  1.41D+00
                    CP:  1.71D+00  1.40D+00
 E=-0.119926184858369D+04 Delta-E=       -0.000005309743
 DIIS: error= 7.74D-05 at cycle   8.
 Coeff:-0.163D-03 0.362D-02 0.432D-02-0.364D-01-0.110D-01 0.224D+00
 Coeff:-0.857D-01-0.110D+01
 RMSDP=9.26D-06 MaxDP=2.95D-04

 Initial convergence to 1.0D-05 achieved.  Increase integral accuracy.
 Cycle   9  Pass 1  IDiag 1:
 E=-0.119926185292642D+04 Delta-E=       -0.000004342728
 DIIS: error= 3.02D-05 at cycle   1.
 RMSDP=9.26D-06 MaxDP=2.95D-04

 Cycle  10  Pass 1  IDiag 1:
 RMSU=  3.83D-06    CP:  1.00D+00
 E=-0.119926185298152D+04 Delta-E=       -0.000000055101
 DIIS: error= 1.58D-05 at cycle   2.
 Coeff:-0.214D+00-0.786D+00
 RMSDP=7.20D-07 MaxDP=2.94D-05

 Cycle  11  Pass 1  IDiag 1:
 RMSU=  6.87D-07    CP:  1.00D+00  1.06D+00
 E=-0.119926185299518D+04 Delta-E=       -0.000000013668
 DIIS: error= 9.62D-06 at cycle   3.
 Coeff: 0.139D+00-0.152D+00-0.986D+00
 RMSDP=4.85D-07 MaxDP=2.00D-05

 Cycle  12  Pass 1  IDiag 1:
 RMSU=  3.88D-07    CP:  1.00D+00  1.12D+00  1.21D+00
 E=-0.119926185300161D+04 Delta-E=       -0.000000006426
 DIIS: error= 2.64D-06 at cycle   4.
 Coeff:-0.653D-02 0.186D+00 0.274D+00-0.145D+01
 RMSDP=3.20D-07 MaxDP=1.01D-05

 Cycle  13  Pass 1  IDiag 1:
 RMSU=  7.93D-08    CP:  1.00D+00  1.14D+00  1.51D+00  1.57D+00
 E=-0.119926185300346D+04 Delta-E=       -0.000000001851
 DIIS: error= 5.47D-07 at cycle   5.
 Coeff:-0.107D-01 0.592D-01 0.136D+00-0.369D+00-0.815D+00
 RMSDP=5.39D-08 MaxDP=1.71D-06

 Cycle  14  Pass 1  IDiag 1:
 RMSU=  3.09D-08    CP:  1.00D+00  1.14D+00  1.54D+00  1.66D+00  1.14D+00
 E=-0.119926185300314D+04 Delta-E=        0.000000000325
 DIIS: error= 2.00D-07 at cycle   6.
 Coeff: 0.314D-02-0.406D-01-0.724D-01 0.302D+00 0.157D+00-0.135D+01
 RMSDP=3.07D-08 MaxDP=8.07D-07

 Cycle  15  Pass 1  IDiag 1:
 RMSU=  9.28D-09    CP:  1.00D+00  1.14D+00  1.55D+00  1.69D+00  1.41D+00
                    CP:  1.47D+00
 E=-0.119926185300158D+04 Delta-E=        0.000000001560
 DIIS: error= 5.35D-08 at cycle   7.
 Coeff: 0.134D-02-0.122D-01-0.239D-01 0.884D-01 0.891D-01-0.271D+00
 Coeff:-0.872D+00
 RMSDP=6.27D-09 MaxDP=1.70D-07

 SCF Done:  E(RHF) =  -531.892477599     A.U. after   15 cycles
             Convg  =    0.6267D-08             -V/T =  2.0014
             S**2   =   0.0000
 KE= 5.311439011993D+02 PE=-2.580802072298D+03 EE= 8.503963180969D+02
 Leave Link  502 at Sun Feb 12 20:13:34 2006, MaxMem=   16777216 cpu:     259.6
 (Enter /usr/local/g98/l801.exe)
 Range of M.O.s used for correlation:     1   193
 NBasis=   193 NAE=    43 NBE=    43 NFC=     0 NFV=     0
 NROrb=    193 NOA=    43 NOB=    43 NVA=   150 NVB=   150
 Leave Link  801 at Sun Feb 12 20:13:34 2006, MaxMem=   16777216 cpu:       0.0
 (Enter /usr/local/g98/l1101.exe)
 Using compressed storage.
 Will process  25 atoms per pass.
 Leave Link 1101 at Sun Feb 12 20:13:35 2006, MaxMem=   16777216 cpu:       1.1
 (Enter /usr/local/g98/l1102.exe)
 Use density number 0.
 Leave Link 1102 at Sun Feb 12 20:13:36 2006, MaxMem=   16777216 cpu:       0.3
 (Enter /usr/local/g98/l1110.exe)
 Forming Gx(P) for the SCF density.
 Integral derivatives from FoFDir, PRISM(SPDF).
 Do as many integral derivatives as possible in FoFDir.
 G2DrvN: MDV=  16777216.
 G2DrvN: will do   25 atoms at a time, making    1 passes doing MaxLOS=2.
 Symmetry not used in FoFDir.
 MinBra= 0 MaxBra= 2 Meth= 1.
 IRaf=       0 NMat=   1 IRICut=       1 DoRegI=T DoRafI=F ISym2E= 0 JSym2E=0.
 FoFDir used for L=0 through L=2.
 Leave Link 1110 at Sun Feb 12 20:17:24 2006, MaxMem=   16777216 cpu:     227.7
 (Enter /usr/local/g98/l1002.exe)
 Minotr:  Closed-shell wavefunction.
          Direct CPHF calculation.
          Solving linear equations simultaneously.
          Requested convergence is 1.0D-06 RMS, and 1.0D-05 maximum.
          Secondary convergence is 1.0D-12 RMS, and 1.0D-12 maximum.
          Differentiating once with respect to electric field.
                with respect to dipole field.
          Differentiating once with respect to nuclear coordinates.
          NewPWx=T KeepS1=F KeepF1=F KeepIn=F MapXYZ=F.
          MDV=      16777216
          Using IRadAn=       2.
 Integrals replicated using symmetry in FoFDir.
 MinBra= 0 MaxBra= 2 Meth= 1.
 IRaf=       0 NMat=  78 IRICut=      78 DoRegI=T DoRafI=T ISym2E= 2 JSym2E=2.
          There are  78 degrees of freedom in the 1st order CPHF.
  75 vectors were produced by pass  0.
 AX will form  75 AO Fock derivatives at one time.
  75 vectors were produced by pass  1.
  75 vectors were produced by pass  2.
  75 vectors were produced by pass  3.
  75 vectors were produced by pass  4.
  20 vectors were produced by pass  5.
   3 vectors were produced by pass  6.
 Inv2:  IOpt= 1 Iter= 1 AM= 3.59D-15 Conv= 1.00D-12.
 Inverted reduced A of dimension 398 with in-core refinement.
 Leave Link 1002 at Sun Feb 12 20:36:40 2006, MaxMem=   16777216 cpu:    1151.5
 (Enter /usr/local/g98/l601.exe)
 Copying SCF densities to generalized density rwf, ISCF=0 IROHF=0.

 **********************************************************************

            Population analysis using the SCF density.

 **********************************************************************

 Alpha  occ. eigenvalues --  -20.53682 -20.51217 -15.59574 -15.57405 -11.35470
 Alpha  occ. eigenvalues --  -11.34190 -11.29205 -11.26603 -11.22492 -11.22132
 Alpha  occ. eigenvalues --  -11.22118  -1.40707  -1.38040  -1.24409  -1.23431
 Alpha  occ. eigenvalues --   -1.07472  -0.98950  -0.96299  -0.95032  -0.87146
 Alpha  occ. eigenvalues --   -0.80866  -0.75447  -0.73557  -0.66322  -0.65657
 Alpha  occ. eigenvalues --   -0.64285  -0.62728  -0.62179  -0.59981  -0.58919
 Alpha  occ. eigenvalues --   -0.58606  -0.56589  -0.56197  -0.55904  -0.54627
 Alpha  occ. eigenvalues --   -0.53064  -0.51445  -0.51223  -0.48695  -0.42544
 Alpha  occ. eigenvalues --   -0.40543  -0.40282  -0.38043
 Alpha virt. eigenvalues --    0.19254   0.19931   0.21411   0.24818   0.25649
 Alpha virt. eigenvalues --    0.26954   0.29316   0.30452   0.31051   0.31280
 Alpha virt. eigenvalues --    0.32818   0.33676   0.33883   0.34305   0.35834
 Alpha virt. eigenvalues --    0.36311   0.37541   0.38861   0.40608   0.43001
 Alpha virt. eigenvalues --    0.44683   0.47567   0.52078   0.55061   0.62444
 Alpha virt. eigenvalues --    0.63876   0.69405   0.72162   0.72646   0.73556
 Alpha virt. eigenvalues --    0.74267   0.76050   0.76591   0.77566   0.80087
 Alpha virt. eigenvalues --    0.83412   0.85992   0.87834   0.90652   0.91608
 Alpha virt. eigenvalues --    0.93393   0.93873   0.98587   0.99971   1.00903
 Alpha virt. eigenvalues --    1.02832   1.03362   1.03722   1.04924   1.10760
 Alpha virt. eigenvalues --    1.12021   1.12188   1.12580   1.13980   1.14859
 Alpha virt. eigenvalues --    1.16904   1.18085   1.18524   1.19380   1.20272
 Alpha virt. eigenvalues --    1.21194   1.21795   1.22318   1.23061   1.24163
 Alpha virt. eigenvalues --    1.25714   1.27766   1.28153   1.30750   1.36079
 Alpha virt. eigenvalues --    1.37315   1.42060   1.45658   1.49187   1.53230
 Alpha virt. eigenvalues --    1.55322   1.56449   1.60252   1.62975   1.64864
 Alpha virt. eigenvalues --    1.67103   1.74782   1.75357   1.75959   1.78755
 Alpha virt. eigenvalues --    1.80523   1.92240   1.93570   1.99105   2.04059
 Alpha virt. eigenvalues --    2.05003   2.06098   2.10728   2.12986   2.14325
 Alpha virt. eigenvalues --    2.14909   2.16698   2.17296   2.20227   2.21491
 Alpha virt. eigenvalues --    2.25211   2.25439   2.27589   2.32025   2.33485
 Alpha virt. eigenvalues --    2.36370   2.38097   2.40733   2.42046   2.44760
 Alpha virt. eigenvalues --    2.49018   2.51789   2.55908   2.57913   2.58931
 Alpha virt. eigenvalues --    2.61022   2.61074   2.63209   2.70081   2.70950
 Alpha virt. eigenvalues --    2.72509   2.75950   2.77945   2.80903   2.86007
 Alpha virt. eigenvalues --    2.86970   2.95212   2.97233   3.00862   3.03461
 Alpha virt. eigenvalues --    3.08634   3.14395   3.16725   3.28304   3.34213
 Alpha virt. eigenvalues --    3.38904   3.40885   3.54372   3.63092   4.39966
 Alpha virt. eigenvalues --    4.45125   4.52029   4.53609   4.64953   4.70509
 Alpha virt. eigenvalues --    4.72449   4.72945   4.93702   4.96251   5.19371
          Condensed to atoms (all electrons):
              1          2          3          4          5          6
  1  C    5.240242   0.377529   0.383131   0.379075   0.373639  -0.072833
  2  H    0.377529   0.524097  -0.022782  -0.022878  -0.041398   0.002665
  3  H    0.383131  -0.022782   0.479641  -0.019821  -0.029804   0.001616
  4  H    0.379075  -0.022878  -0.019821   0.488211  -0.026457   0.000286
  5  C    0.373639  -0.041398  -0.029804  -0.026457   4.138240   0.585230
  6  O   -0.072833   0.002665   0.001616   0.000286   0.585230   8.201261
  7  N   -0.110094   0.007248   0.002789   0.000572   0.274108  -0.100922
  8  H   -0.000439   0.001259   0.000010   0.000035  -0.013084   0.001932
  9  C    0.004600   0.000283  -0.000091  -0.000149  -0.029921   0.011540
 10  C   -0.000366  -0.000001   0.000023  -0.000003  -0.002857  -0.008689
 11  H    0.000198  -0.000013   0.000000  -0.000001   0.001473   0.008858
 12  H   -0.000014   0.000000  -0.000003   0.000001   0.000007  -0.000063
 13  H    0.000006   0.000000   0.000000   0.000000   0.000140   0.000153
 14  C   -0.000424   0.000007  -0.000003   0.000042  -0.002146  -0.008783
 15  H    0.000006   0.000000   0.000000  -0.000001   0.000114   0.000143
 16  H   -0.000008  -0.000002   0.000001  -0.000005  -0.000089  -0.000073
 17  H    0.000196  -0.000008  -0.000001  -0.000008   0.001557   0.008984
 18  C   -0.000054  -0.000048   0.000000   0.000001   0.003541   0.000237
 19  O   -0.000060  -0.000038   0.000000   0.000000   0.000281  -0.000004
 20  N    0.000000   0.000000   0.000000   0.000000  -0.000088   0.000000
 21  H    0.000000   0.000000   0.000000   0.000000   0.000002   0.000001
 22  C    0.000000   0.000000   0.000000   0.000000   0.000001   0.000000
 23  H    0.000000   0.000000   0.000000   0.000000   0.000000   0.000000
 24  H    0.000000   0.000000   0.000000   0.000000   0.000000   0.000000
 25  H    0.000000   0.000000   0.000000   0.000000   0.000000   0.000000
              7          8          9         10         11         12
  1  C   -0.110094  -0.000439   0.004600  -0.000366   0.000198  -0.000014
  2  H    0.007248   0.001259   0.000283  -0.000001  -0.000013   0.000000
  3  H    0.002789   0.000010  -0.000091   0.000023   0.000000  -0.000003
  4  H    0.000572   0.000035  -0.000149  -0.000003  -0.000001   0.000001
  5  C    0.274108  -0.013084  -0.029921  -0.002857   0.001473   0.000007
  6  O   -0.100922   0.001932   0.011540  -0.008689   0.008858  -0.000063
  7  N    7.470572   0.304432   0.195641  -0.064844  -0.006379   0.000714
  8  H    0.304432   0.278481  -0.031644   0.003290  -0.000179   0.000163
  9  C    0.195641  -0.031644   5.005681   0.356750  -0.026233  -0.037813
 10  C   -0.064844   0.003290   0.356750   5.170165   0.389092   0.388319
 11  H   -0.006379  -0.000179  -0.026233   0.389092   0.444310  -0.020972
 12  H    0.000714   0.000163  -0.037813   0.388319  -0.020972   0.517236
 13  H    0.004814  -0.000077  -0.036264   0.377886  -0.022740  -0.026371
 14  C   -0.064792   0.003174   0.356687  -0.067697  -0.003878   0.004701
 15  H    0.004803  -0.000073  -0.036098  -0.002246   0.000294  -0.000084
 16  H    0.000815   0.000188  -0.037991   0.004728  -0.000021  -0.000113
 17  H   -0.006647  -0.000184  -0.026272  -0.003963   0.001186  -0.000019
 18  C   -0.050185  -0.008878   0.412430  -0.061499   0.003651  -0.002299
 19  O   -0.016824   0.030295  -0.069228  -0.000005  -0.000060   0.000550
 20  N    0.003050   0.001361  -0.121948   0.004318   0.000001   0.000291
 21  H    0.000090  -0.000040   0.000089   0.000395  -0.000032  -0.000030
 22  C   -0.000066  -0.000047   0.004165  -0.000195   0.000003  -0.000037
 23  H    0.000000  -0.000001  -0.000019  -0.000025  -0.000001   0.000006
 24  H    0.000000  -0.000001  -0.000018   0.000003   0.000000   0.000000
 25  H    0.000000   0.000000   0.000033  -0.000009   0.000000   0.000000
             13         14         15         16         17         18
  1  C    0.000006  -0.000424   0.000006  -0.000008   0.000196  -0.000054
  2  H    0.000000   0.000007   0.000000  -0.000002  -0.000008  -0.000048
  3  H    0.000000  -0.000003   0.000000   0.000001  -0.000001   0.000000
  4  H    0.000000   0.000042  -0.000001  -0.000005  -0.000008   0.000001
  5  C    0.000140  -0.002146   0.000114  -0.000089   0.001557   0.003541
  6  O    0.000153  -0.008783   0.000143  -0.000073   0.008984   0.000237
  7  N    0.004814  -0.064792   0.004803   0.000815  -0.006647  -0.050185
  8  H   -0.000077   0.003174  -0.000073   0.000188  -0.000184  -0.008878
  9  C   -0.036264   0.356687  -0.036098  -0.037991  -0.026272   0.412430
 10  C    0.377886  -0.067697  -0.002246   0.004728  -0.003963  -0.061499
 11  H   -0.022740  -0.003878   0.000294  -0.000021   0.001186   0.003651
 12  H   -0.026371   0.004701  -0.000084  -0.000113  -0.000019  -0.002299
 13  H    0.563510  -0.002320   0.000530  -0.000083   0.000307  -0.004910
 14  C   -0.002320   5.169733   0.378192   0.388323   0.389060  -0.061346
 15  H    0.000530   0.378192   0.562095  -0.026241  -0.022752  -0.004924
 16  H   -0.000083   0.388323  -0.026241   0.517696  -0.021063  -0.002355
 17  H    0.000307   0.389060  -0.022752  -0.021063   0.445050   0.003681
 18  C   -0.004910  -0.061346  -0.004924  -0.002355   0.003681   4.146586
 19  O   -0.000015  -0.000044  -0.000014   0.000573  -0.000060   0.602494
 20  N    0.001322   0.004166   0.001407   0.000292  -0.000002   0.276669
 21  H    0.001970   0.000376   0.001903  -0.000028  -0.000032  -0.021179
 22  C    0.000031  -0.000197   0.000029  -0.000035   0.000003  -0.029396
 23  H   -0.000006   0.000002   0.000001   0.000000   0.000000  -0.003478
 24  H    0.000001  -0.000025  -0.000006   0.000007  -0.000001  -0.003457
 25  H   -0.000004  -0.000009  -0.000004   0.000000   0.000000   0.004742
             19         20         21         22         23         24
  1  C   -0.000060   0.000000   0.000000   0.000000   0.000000   0.000000
  2  H   -0.000038   0.000000   0.000000   0.000000   0.000000   0.000000
  3  H    0.000000   0.000000   0.000000   0.000000   0.000000   0.000000
  4  H    0.000000   0.000000   0.000000   0.000000   0.000000   0.000000
  5  C    0.000281  -0.000088   0.000002   0.000001   0.000000   0.000000
  6  O   -0.000004   0.000000   0.000001   0.000000   0.000000   0.000000
  7  N   -0.016824   0.003050   0.000090  -0.000066   0.000000   0.000000
  8  H    0.030295   0.001361  -0.000040  -0.000047  -0.000001  -0.000001
  9  C   -0.069228  -0.121948   0.000089   0.004165  -0.000019  -0.000018
 10  C   -0.000005   0.004318   0.000395  -0.000195  -0.000025   0.000003
 11  H   -0.000060   0.000001  -0.000032   0.000003  -0.000001   0.000000
 12  H    0.000550   0.000291  -0.000030  -0.000037   0.000006   0.000000
 13  H   -0.000015   0.001322   0.001970   0.000031  -0.000006   0.000001
 14  C   -0.000044   0.004166   0.000376  -0.000197   0.000002  -0.000025
 15  H   -0.000014   0.001407   0.001903   0.000029   0.000001  -0.000006
 16  H    0.000573   0.000292  -0.000028  -0.000035   0.000000   0.000007
 17  H   -0.000060  -0.000002  -0.000032   0.000003   0.000000  -0.000001
 18  C    0.602494   0.276669  -0.021179  -0.029396  -0.003478  -0.003457
 19  O    8.187879  -0.110639   0.002603   0.008817   0.002008   0.002027
 20  N   -0.110639   7.342011   0.327005   0.198477  -0.043796  -0.043733
 21  H    0.002603   0.327005   0.314279  -0.022094   0.001993   0.002000
 22  C    0.008817   0.198477  -0.022094   4.899601   0.405751   0.405719
 23  H    0.002008  -0.043796   0.001993   0.405751   0.507522  -0.034147
 24  H    0.002027  -0.043733   0.002000   0.405719  -0.034147   0.507233
 25  H    0.000434  -0.036583  -0.004714   0.396637  -0.027921  -0.027857
             25
  1  C    0.000000
  2  H    0.000000
  3  H    0.000000
  4  H    0.000000
  5  C    0.000000
  6  O    0.000000
  7  N    0.000000
  8  H    0.000000
  9  C    0.000033
 10  C   -0.000009
 11  H    0.000000
 12  H    0.000000
 13  H   -0.000004
 14  C   -0.000009
 15  H   -0.000004
 16  H    0.000000
 17  H    0.000000
 18  C    0.004742
 19  O    0.000434
 20  N   -0.036583
 21  H   -0.004714
 22  C    0.396637
 23  H   -0.027921
 24  H   -0.027857
 25  H    0.525773
 Total atomic charges:
              1
  1  C   -0.574331
  2  H    0.174079
  3  H    0.205295
  4  H    0.201099
  5  C    0.767508
  6  O   -0.631538
  7  N   -0.848895
  8  H    0.430026
  9  C    0.105789
 10  C   -0.482569
 11  H    0.231442
 12  H    0.175827
 13  H    0.142120
 14  C   -0.482804
 15  H    0.142928
 16  H    0.175485
 17  H    0.230988
 18  C    0.799974
 19  O   -0.640969
 20  N   -0.803580
 21  H    0.395444
 22  C   -0.267168
 23  H    0.192111
 24  H    0.192255
 25  H    0.169482
 Sum of Mulliken charges=   0.00000
 Atomic charges with hydrogens summed into heavy atoms:
              1
  1  C    0.006142
  2  H    0.000000
  3  H    0.000000
  4  H    0.000000
  5  C    0.767508
  6  O   -0.631538
  7  N   -0.418869
  8  H    0.000000
  9  C    0.105789
 10  C    0.066821
 11  H    0.000000
 12  H    0.000000
 13  H    0.000000
 14  C    0.066597
 15  H    0.000000
 16  H    0.000000
 17  H    0.000000
 18  C    0.799974
 19  O   -0.640969
 20  N   -0.408135
 21  H    0.000000
 22  C    0.286680
 23  H    0.000000
 24  H    0.000000
 25  H    0.000000
 Sum of Mulliken charges=   0.00000
 Electronic spatial extent (au):  <R**2>=  2134.1288
 Charge=     0.0000 electrons
 Dipole moment (Debye):
    X=     3.2442    Y=    -0.4536    Z=     0.0657  Tot=     3.2764
 Quadrupole moment (Debye-Ang):
   XX=   -63.4078   YY=   -70.2313   ZZ=   -66.6032
   XY=   -13.8980   XZ=    -0.0638   YZ=     0.0547
 Octapole moment (Debye-Ang**2):
  XXX=    54.1945  YYY=    -5.2403  ZZZ=     0.3597  XYY=     1.2993
  XXY=    20.9601  XXZ=     0.0922  XZZ=    -3.3820  YZZ=     2.4742
  YYZ=     0.0070  XYZ=    -0.2712
 Hexadecapole moment (Debye-Ang**3):
 XXXX= -1888.9922 YYYY=  -518.6409 ZZZZ=  -245.9890 XXXY=   -75.6160
 XXXZ=     2.5084 YYYX=   -19.9445 YYYZ=    -0.7851 ZZZX=    -1.9096
 ZZZY=     0.8520 XXYY=  -424.9516 XXZZ=  -371.9883 YYZZ=  -127.3488
 XXYZ=     1.0323 YYXZ=    -0.0253 ZZXY=     7.9216
 N-N= 6.673693754029D+02 E-N=-2.580802070377D+03  KE= 5.311439011993D+02
  Exact polarizability: 100.476  -2.744  83.303  -0.071   0.033  65.453
 Approx polarizability:  76.854  -0.013  81.288  -0.040  -0.055  61.754
 Leave Link  601 at Sun Feb 12 20:36:40 2006, MaxMem=   16777216 cpu:       0.5
 (Enter /usr/local/g98/l701.exe)
 Compute integral second derivatives.
 ... and contract with generalized density number  0.
 Leave Link  701 at Sun Feb 12 20:36:42 2006, MaxMem=   16777216 cpu:       1.5
 (Enter /usr/local/g98/l702.exe)
 L702 exits ... SP integral derivatives will be done elsewhere.
 Leave Link  702 at Sun Feb 12 20:36:42 2006, MaxMem=   16777216 cpu:       0.0
 (Enter /usr/local/g98/l703.exe)
 Compute integral second derivatives.
 Integral derivatives from FoFDir, PRISM(SPDF).
 Symmetry not used in FoFDir.
 MinBra= 0 MaxBra= 2 Meth= 1.
 IRaf=       0 NMat=   1 IRICut=       1 DoRegI=T DoRafI=F ISym2E= 0 JSym2E=0.
 Leave Link  703 at Sun Feb 12 20:46:27 2006, MaxMem=   16777216 cpu:     582.6
 (Enter /usr/local/g98/l716.exe)
 Dipole        = 1.27634550D+00-1.78441164D-01 2.58673505D-02
 Polarizability= 1.00475598D+02-2.74435941D+00 8.33027529D+01
                -7.14003429D-02 3.25106511D-02 6.54529772D+01
 HyperPolar    =-1.21398290D+02-2.67421814D+01 5.18678153D+01
                -1.40947463D+01-7.09601707D+00-4.62947587D+00
                -4.04515453D+00 1.21538667D+00 3.65922196D+01
                 1.15560963D+01
 ***** Axes restored to original set *****
 -------------------------------------------------------------------
 Center     Atomic                   Forces (Hartrees/Bohr)
 Number     Number              X              Y              Z
 -------------------------------------------------------------------
    1          6           0.000190528    0.000481825    0.000280146
    2          1          -0.000153512   -0.000310435    0.000031191
    3          1          -0.000076088   -0.000054217    0.000010561
    4          1          -0.000008370   -0.000055049   -0.000239441
    5          6          -0.000017858    0.000617233   -0.000226392
    6          8          -0.000124921   -0.000545546    0.000089750
    7          7           0.000647305   -0.000145395    0.000132377
    8          1          -0.000160451   -0.000213642    0.000021037
    9          6          -0.000296210   -0.000026212   -0.000187173
   10          6           0.000143478   -0.000202175   -0.000080165
   11          1          -0.000051232    0.000084266    0.000062625
   12          1           0.000000724    0.000025230    0.000087919
   13          1          -0.000023183    0.000116421    0.000017092
   14          6          -0.000301341    0.000142841   -0.000186738
   15          1           0.000094590    0.000032067    0.000012343
   16          1           0.000037780   -0.000083935    0.000087472
   17          1           0.000040247    0.000015424    0.000088703
   18          6          -0.000221850   -0.000324665   -0.000020231
   19          8           0.000120283    0.000371590    0.000007995
   20          7           0.000480260    0.000647446    0.000022482
   21          1          -0.000053521   -0.000369248    0.000003072
   22          6          -0.000449491   -0.000376377    0.000066697
   23          1           0.000059988    0.000099314   -0.000012901
   24          1           0.000034039    0.000045417   -0.000059673
   25          1           0.000088808    0.000027821   -0.000008748
 -------------------------------------------------------------------
 Cartesian Forces:  Max     0.000647446 RMS     0.000222254
 Leave Link  716 at Sun Feb 12 20:46:27 2006, MaxMem=   16777216 cpu:       0.1
 (Enter /usr/local/g98/l103.exe)

 GradGradGradGradGradGradGradGradGradGradGradGradGradGradGradGradGradGrad
 Berny optimization.
 Internal  Forces:  Max     0.000554916 RMS     0.000112747
 Search for a local minimum.
 Step number   1 out of a maximum of 126
 All quantities printed in internal units (Hartrees-Bohrs-Radians)
 Second derivative matrix not updated -- analytic derivatives used.
     Eigenvalues ---    0.00003   0.00017   0.00130   0.00291   0.00346
     Eigenvalues ---    0.00384   0.00794   0.01133   0.02005   0.02268
     Eigenvalues ---    0.04886   0.05145   0.05432   0.05479   0.05600
     Eigenvalues ---    0.05677   0.05911   0.06484   0.06871   0.06944
     Eigenvalues ---    0.07157   0.07262   0.07395   0.14268   0.14508
     Eigenvalues ---    0.14771   0.14825   0.15031   0.15580   0.15703
     Eigenvalues ---    0.16181   0.16426   0.16722   0.17019   0.17664
     Eigenvalues ---    0.19125   0.20737   0.20836   0.21455   0.22667
     Eigenvalues ---    0.25073   0.26050   0.26594   0.29515   0.30846
     Eigenvalues ---    0.31524   0.32905   0.37223   0.37457   0.37542
     Eigenvalues ---    0.37730   0.37807   0.37844   0.37979   0.38109
     Eigenvalues ---    0.38673   0.38713   0.38830   0.39292   0.39715
     Eigenvalues ---    0.41251   0.42745   0.44099   0.52914   0.53182
     Eigenvalues ---    0.54529   0.55211   0.97262   0.977061000.00000
     Eigenvalues --- 1000.000001000.000001000.000001000.000001000.00000
     Eigenvalues --- 1000.000001000.000001000.000001000.000001000.00000
     Eigenvalues --- 1000.000001000.000001000.000001000.000001000.00000
     Eigenvalues --- 1000.000001000.000001000.000001000.000001000.00000
     Eigenvalues --- 1000.000001000.000001000.000001000.000001000.00000
     Eigenvalues --- 1000.000001000.000001000.000001000.000001000.00000
     Eigenvalues --- 1000.000001000.000001000.000001000.000001000.00000
     Eigenvalues --- 1000.000001000.000001000.000001000.000001000.00000
     Eigenvalues --- 1000.000001000.000001000.000001000.000001000.00000
     Eigenvalues --- 1000.00000
 RFO step:  Lambda=-4.62917190D-06.
 Linear search not attempted -- first point.
 Iteration  1 RMS(Cart)=  0.00040017 RMS(Int)=  0.00000027
 Iteration  2 RMS(Cart)=  0.00000035 RMS(Int)=  0.00000013
 Variable       Old X    -DE/DX   Delta X   Delta X   Delta X     New X
                                 (Linear)    (Quad)   (Total)
    R1        2.04760  -0.00034   0.00000  -0.00096  -0.00096   2.04664
    R2        2.04447   0.00006   0.00000   0.00022   0.00022   2.04469
    R3        2.05024  -0.00022   0.00000  -0.00060  -0.00060   2.04963
    R4        2.86352   0.00008   0.00000   0.00006   0.00006   2.86358
    R5        2.27682   0.00055   0.00000   0.00060   0.00060   2.27742
    R6        2.54619   0.00015   0.00000   0.00025   0.00025   2.54644
    R7        1.88196  -0.00025   0.00000  -0.00045  -0.00045   1.88151
    R8        2.74944  -0.00037   0.00000  -0.00106  -0.00106   2.74838
    R9        2.90855  -0.00009   0.00000  -0.00016  -0.00016   2.90839
   R10        2.90873  -0.00005   0.00000  -0.00022  -0.00022   2.90850
   R11        2.91483   0.00012   0.00000   0.00037   0.00037   2.91520
   R12        2.04079   0.00000   0.00000  -0.00001  -0.00001   2.04078
   R13        2.04992  -0.00006   0.00000  -0.00015  -0.00015   2.04977
   R14        2.05034  -0.00009   0.00000  -0.00033  -0.00033   2.05001
   R15        2.04974   0.00005   0.00000   0.00020   0.00020   2.04994
   R16        2.04976   0.00002   0.00000   0.00010   0.00010   2.04987
   R17        2.04100  -0.00004   0.00000  -0.00014  -0.00014   2.04086
   R18        2.27757   0.00037   0.00000   0.00036   0.00036   2.27793
   R19        2.53940   0.00010   0.00000   0.00024   0.00024   2.53963
   R20        1.87299   0.00037   0.00000   0.00069   0.00069   1.87367
   R21        2.73887  -0.00033   0.00000  -0.00118  -0.00118   2.73769
   R22        2.04488   0.00007   0.00000   0.00027   0.00027   2.04516
   R23        2.04505  -0.00002   0.00000   0.00003   0.00003   2.04508
   R24        2.04352   0.00005   0.00000   0.00013   0.00013   2.04365
    A1        1.91209   0.00002   0.00000   0.00016   0.00016   1.91225
    A2        1.89811   0.00004   0.00000   0.00094   0.00094   1.89906
    A3        1.98082   0.00001   0.00000   0.00024   0.00024   1.98106
    A4        1.88182  -0.00007   0.00000  -0.00098  -0.00098   1.88085
    A5        1.89561  -0.00005   0.00000  -0.00061  -0.00061   1.89500
    A6        1.89289   0.00005   0.00000   0.00017   0.00017   1.89306
    A7        2.10833   0.00003   0.00000   0.00005   0.00005   2.10837
    A8        2.00963   0.00012   0.00000   0.00044   0.00044   2.01007
    A9        2.16511  -0.00014   0.00000  -0.00050  -0.00050   2.16461
   A10        2.08767  -0.00012   0.00000  -0.00089  -0.00089   2.08678
   A11        2.19617   0.00006   0.00000   0.00030   0.00030   2.19647
   A12        1.99929   0.00006   0.00000   0.00060   0.00060   1.99988
   A13        1.92923   0.00006   0.00000   0.00048   0.00048   1.92970
   A14        1.93117  -0.00006   0.00000  -0.00023  -0.00023   1.93094
   A15        1.82907  -0.00002   0.00000  -0.00025  -0.00025   1.82882
   A16        1.94215   0.00001   0.00000   0.00010   0.00011   1.94225
   A17        1.91511  -0.00002   0.00000  -0.00001  -0.00001   1.91510
   A18        1.91385   0.00003   0.00000  -0.00012  -0.00012   1.91373
   A19        1.90972  -0.00012   0.00000  -0.00072  -0.00072   1.90900
   A20        1.92767  -0.00008   0.00000  -0.00066  -0.00066   1.92700
   A21        1.94774  -0.00002   0.00000  -0.00006  -0.00006   1.94768
   A22        1.89828   0.00008   0.00000   0.00022   0.00022   1.89850
   A23        1.88908   0.00011   0.00000   0.00103   0.00103   1.89011
   A24        1.89029   0.00005   0.00000   0.00024   0.00024   1.89053
   A25        1.94795  -0.00010   0.00000  -0.00052  -0.00052   1.94743
   A26        1.92624   0.00015   0.00000   0.00078   0.00078   1.92702
   A27        1.90833   0.00012   0.00000   0.00089   0.00089   1.90922
   A28        1.89125  -0.00008   0.00000  -0.00105  -0.00104   1.89021
   A29        1.89008   0.00001   0.00000   0.00022   0.00022   1.89031
   A30        1.89901  -0.00010   0.00000  -0.00035  -0.00035   1.89866
   A31        2.12603   0.00014   0.00000   0.00037   0.00037   2.12640
   A32        2.03493   0.00003   0.00000   0.00017   0.00017   2.03510
   A33        2.12223  -0.00017   0.00000  -0.00054  -0.00054   2.12169
   A34        2.09355  -0.00009   0.00000  -0.00060  -0.00060   2.09294
   A35        2.11669   0.00007   0.00000   0.00038   0.00038   2.11707
   A36        2.07294   0.00002   0.00000   0.00023   0.00023   2.07317
   A37        1.93559   0.00008   0.00000   0.00054   0.00054   1.93613
   A38        1.93536   0.00005   0.00000   0.00046   0.00046   1.93582
   A39        1.89218   0.00010   0.00000   0.00076   0.00076   1.89294
   A40        1.89303  -0.00011   0.00000  -0.00107  -0.00107   1.89196
   A41        1.90372  -0.00007   0.00000  -0.00043  -0.00043   1.90328
   A42        1.90356  -0.00005   0.00000  -0.00028  -0.00028   1.90327
    D1       -2.91454   0.00000   0.00000  -0.00055  -0.00055  -2.91509
    D2        0.24305   0.00006   0.00000   0.00043   0.00043   0.24348
    D3       -0.78341   0.00000   0.00000  -0.00062  -0.00063  -0.78404
    D4        2.37417   0.00006   0.00000   0.00035   0.00035   2.37453
    D5        1.25729  -0.00009   0.00000  -0.00202  -0.00202   1.25527
    D6       -1.86831  -0.00003   0.00000  -0.00104  -0.00104  -1.86935
    D7       -0.01543  -0.00001   0.00000  -0.00009  -0.00009  -0.01552
    D8        3.11434  -0.00002   0.00000  -0.00011  -0.00011   3.11423
    D9       -3.14044   0.00005   0.00000   0.00092   0.00092  -3.13952
   D10       -0.01067   0.00004   0.00000   0.00090   0.00090  -0.00977
   D11        1.08458   0.00001   0.00000   0.00000   0.00000   1.08458
   D12       -1.07490   0.00000   0.00000  -0.00031  -0.00031  -1.07521
   D13       -3.13649   0.00001   0.00000   0.00008   0.00008  -3.13641
   D14       -2.06831   0.00001   0.00000  -0.00003  -0.00003  -2.06834
   D15        2.05540  -0.00001   0.00000  -0.00034  -0.00034   2.05506
   D16       -0.00620   0.00000   0.00000   0.00005   0.00005  -0.00614
   D17       -1.04146   0.00004   0.00000   0.00021   0.00021  -1.04125
   D18        1.04767   0.00000   0.00000  -0.00038  -0.00038   1.04728
   D19       -3.13173  -0.00001   0.00000  -0.00057  -0.00057  -3.13230
   D20        1.11167   0.00001   0.00000   0.00033   0.00033   1.11200
   D21       -3.08239  -0.00003   0.00000  -0.00026  -0.00026  -3.08265
   D22       -0.97860  -0.00004   0.00000  -0.00045  -0.00045  -0.97905
   D23       -3.05021   0.00003   0.00000   0.00024   0.00024  -3.04997
   D24       -0.96108   0.00000   0.00000  -0.00035  -0.00035  -0.96143
   D25        1.14271  -0.00001   0.00000  -0.00054  -0.00054   1.14217
   D26        3.13300   0.00006   0.00000   0.00079   0.00079   3.13379
   D27       -1.04600  -0.00001   0.00000  -0.00035  -0.00036  -1.04636
   D28        1.04226   0.00003   0.00000   0.00025   0.00025   1.04252
   D29        0.98098   0.00001   0.00000   0.00026   0.00026   0.98124
   D30        3.08516  -0.00005   0.00000  -0.00088  -0.00088   3.08428
   D31       -1.10976  -0.00001   0.00000  -0.00027  -0.00027  -1.11003
   D32       -1.14106   0.00002   0.00000   0.00029   0.00029  -1.14077
   D33        0.96312  -0.00005   0.00000  -0.00085  -0.00085   0.96227
   D34        3.05138  -0.00001   0.00000  -0.00024  -0.00024   3.05114
   D35        0.00586  -0.00004   0.00000  -0.00040  -0.00040   0.00546
   D36       -3.13666  -0.00004   0.00000  -0.00042  -0.00042  -3.13707
   D37        2.07753   0.00001   0.00000   0.00002   0.00002   2.07754
   D38       -1.06498   0.00001   0.00000   0.00000   0.00000  -1.06499
   D39       -2.06747   0.00003   0.00000   0.00006   0.00006  -2.06740
   D40        1.07321   0.00003   0.00000   0.00004   0.00004   1.07325
   D41        0.00269   0.00000   0.00000  -0.00005  -0.00005   0.00264
   D42       -3.14086   0.00000   0.00000  -0.00043  -0.00043  -3.14129
   D43       -3.13982   0.00000   0.00000  -0.00006  -0.00006  -3.13989
   D44       -0.00019  -0.00001   0.00000  -0.00044  -0.00044  -0.00063
   D45       -1.05429   0.00003   0.00000   0.00096   0.00096  -1.05333
   D46        1.05003  -0.00002   0.00000   0.00028   0.00028   1.05031
   D47        3.13929   0.00000   0.00000   0.00069   0.00069   3.13998
   D48        2.08536   0.00003   0.00000   0.00058   0.00058   2.08595
   D49       -2.09350  -0.00003   0.00000  -0.00010  -0.00010  -2.09360
   D50       -0.00423   0.00000   0.00000   0.00031   0.00031  -0.00393
         Item               Value     Threshold  Converged?
 Maximum Force            0.000555     0.000002     NO 
 RMS     Force            0.000113     0.000001     NO 
 Maximum Displacement     0.001099     0.000006     NO 
 RMS     Displacement     0.000400     0.000004     NO 
 Predicted change in Energy=-2.314430D-06
 GradGradGradGradGradGradGradGradGradGradGradGradGradGradGradGradGradGrad

 Leave Link  103 at Sun Feb 12 20:46:27 2006, MaxMem=   16777216 cpu:       0.1
 (Enter /usr/local/g98/l202.exe)
                          Input orientation:                          
 ---------------------------------------------------------------------
 Center     Atomic     Atomic              Coordinates (Angstroms)
 Number     Number      Type              X           Y           Z
 ---------------------------------------------------------------------
    1          6             0       -3.284725    1.356414    0.006027
    2          1             0       -2.800203    2.297068   -0.225002
    3          1             0       -4.080773    1.174912   -0.703970
    4          1             0       -3.730460    1.425659    0.992397
    5          6             0       -2.341792    0.170327   -0.012336
    6          8             0       -2.767916   -0.956963   -0.005628
    7          7             0       -1.030504    0.480687   -0.015295
    8          1             0       -0.751935    1.436565   -0.019111
    9          6             0        0.069866   -0.470186    0.000517
   10          6             0        0.040256   -1.352265   -1.260331
   11          1             0       -0.895030   -1.890786   -1.299000
   12          1             0        0.128159   -0.740774   -2.151909
   13          1             0        0.849489   -2.074739   -1.261232
   14          6             0        0.030674   -1.323862    1.280585
   15          1             0        0.841166   -2.044472    1.304539
   16          1             0        0.110253   -0.692400    2.158985
   17          1             0       -0.904062   -1.863108    1.323454
   18          6             0        1.343000    0.400966   -0.003232
   19          8             0        1.289395    1.605175   -0.011361
   20          7             0        2.518242   -0.250849    0.004159
   21          1             0        2.533853   -1.242218    0.009312
   22          6             0        3.776821    0.466625    0.001898
   23          1             0        3.867102    1.086187   -0.880858
   24          1             0        3.861440    1.100984    0.874600
   25          1             0        4.582300   -0.254948    0.010592
 ---------------------------------------------------------------------
                    Distance matrix (angstroms):
                    1          2          3          4          5
     1  C    0.000000
     2  H    1.083035   0.000000
     3  H    1.082003   1.768758   0.000000
     4  H    1.084620   1.762610   1.750216   0.000000
     5  C    1.515343   2.185953   2.124053   2.124558   0.000000
     6  O    2.370431   3.261576   2.599262   2.756706   1.205160
     7  N    2.418443   2.544612   3.203179   3.032850   1.347518
     8  H    2.534183   2.231200   3.408614   3.145612   2.032497
     9  C    3.819657   3.993225   4.520005   4.361253   2.495298
    10  C    4.471701   4.738960   4.866111   5.197109   3.090296
    11  H    4.237693   4.724539   4.461111   4.928384   2.827863
    12  H    4.550018   4.638616   4.845770   5.428539   3.392423
    13  H    5.520008   5.788498   5.931125   6.189310   4.096869
    14  C    4.449747   4.836506   5.204452   4.667874   3.087530
    15  H    5.502285   5.869244   6.214823   5.747956   4.095206
    16  H    4.512067   4.805316   5.408148   4.538521   3.386954
    17  H    4.215269   4.827021   4.840610   4.349036   2.825998
    18  C    4.725337   4.561854   5.523344   5.270793   3.692014
    19  O    4.580912   4.153211   5.431715   5.122372   3.904395
    20  N    6.021439   5.901716   6.788316   6.544736   4.878277
    21  H    6.372500   6.405747   7.078457   6.879363   5.076186
    22  C    7.117386   6.830757   7.920965   7.632830   6.125799
    23  H    7.211673   6.808035   7.950338   7.832450   6.335889
    24  H    7.203287   6.856911   8.097907   7.599753   6.335050
    25  H    8.030354   7.814706   8.809308   8.537584   6.937177
                    6          7          8          9         10
     6  O    0.000000
     7  N    2.255111   0.000000
     8  H    3.129430   0.995650   0.000000
     9  C    2.879235   1.454381   2.076401   0.000000
    10  C    3.101027   2.460966   3.153691   1.539051   0.000000
    11  H    2.460190   2.700024   3.567892   2.153572   1.079935
    12  H    3.611164   2.720217   3.172412   2.170150   1.084694
    13  H    3.988932   3.408362   4.054217   2.185043   1.084816
    14  C    3.101783   2.462073   3.149864   1.539114   2.541092
    15  H    3.990574   3.409038   4.050635   2.184893   2.774737
    16  H    3.611011   2.721205   3.165432   2.170252   3.483108
    17  H    2.462013   2.702149   3.565595   2.153817   2.797970
    18  C    4.329388   2.374873   2.336979   1.542657   2.520171
    19  O    4.798578   2.578066   2.048296   2.407180   3.444812
    20  N    5.333119   3.623414   3.679941   2.458184   2.992068
    21  H    5.309458   3.958996   4.239468   2.582120   2.800380
    22  C    6.697778   4.807376   4.631507   3.823497   4.343213
    23  H    6.997425   5.010228   4.711781   4.197395   4.553549
    24  H    6.997021   5.010769   4.711111   4.196264   5.017750
    25  H    7.383681   5.660865   5.596084   4.517575   4.842469
                   11         12         13         14         15
    11  H    0.000000
    12  H    1.759801   0.000000
    13  H    1.754598   1.758717   0.000000
    14  C    2.798676   3.483031   2.774005   0.000000
    15  H    3.133116   3.762319   2.565963   1.084781   0.000000
    16  H    3.795311   4.311202   3.762341   1.084742   1.758525
    17  H    2.622615   3.795163   3.130547   1.079979   1.754728
    18  C    3.455419   2.719599   2.820502   2.519011   2.818204
    19  O    4.318735   3.381403   3.911197   3.439878   3.905436
    20  N    4.004753   3.255941   2.777143   2.994765   2.778608
    21  H    3.726870   3.272565   2.268139   2.808684   2.277371
    22  C    5.392209   4.405613   4.077168   4.344480   4.076832
    23  H    5.631618   4.351213   4.386585   5.019797   4.871682
    24  H    6.024885   5.146767   4.870199   4.551865   4.381872
    25  H    5.864481   4.975118   4.343161   4.844869   4.344281
                   16         17         18         19         20
    16  H    0.000000
    17  H    1.759974   0.000000
    18  C    2.718510   3.454767   0.000000
    19  O    3.373370   4.315318   1.205429   0.000000
    20  N    3.261388   4.006505   1.343917   2.226013   0.000000
    21  H    3.285914   3.732524   2.029370   3.107531   0.991505
    22  C    4.409091   5.393035   2.434712   2.735646   1.448722
    23  H    5.149556   6.026719   2.758777   2.769468   2.095315
    24  H    4.351698   5.630038   2.757382   2.766686   2.095066
    25  H    4.980577   5.865999   3.305068   3.782032   2.064071
                   21         22         23         24         25
    21  H    0.000000
    22  C    2.113094   0.000000
    23  H    2.826911   1.082250   0.000000
    24  H    2.828746   1.082211   1.755529   0.000000
    25  H    2.273947   1.081453   1.762054   1.762016   0.000000
 Stoichiometry    C7H14N2O2
 Framework group  C1[X(C7H14N2O2)]
 Deg. of freedom   69
 Full point group                 C1      NOp   1
 Largest Abelian subgroup         C1      NOp   1
 Largest concise Abelian subgroup C1      NOp   1
                         Standard orientation:                         
 ---------------------------------------------------------------------
 Center     Atomic     Atomic              Coordinates (Angstroms)
 Number     Number      Type              X           Y           Z
 ---------------------------------------------------------------------
    1          6             0       -3.284730    1.356451    0.006054
    2          1             0       -2.800194    2.297097   -0.224975
    3          1             0       -4.080779    1.174958   -0.703943
    4          1             0       -3.730463    1.425701    0.992424
    5          6             0       -2.341811    0.170351   -0.012310
    6          8             0       -2.767950   -0.956933   -0.005601
    7          7             0       -1.030520    0.480693   -0.015269
    8          1             0       -0.751938    1.436568   -0.019084
    9          6             0        0.069838   -0.470194    0.000544
   10          6             0        0.040216   -1.352273   -1.260304
   11          1             0       -0.895077   -1.890781   -1.298973
   12          1             0        0.128128   -0.740782   -2.151882
   13          1             0        0.849440   -2.074757   -1.261205
   14          6             0        0.030634   -1.323870    1.280611
   15          1             0        0.841117   -2.044491    1.304566
   16          1             0        0.110222   -0.692408    2.159012
   17          1             0       -0.904108   -1.863103    1.323480
   18          6             0        1.342983    0.400942   -0.003205
   19          8             0        1.289394    1.605151   -0.011334
   20          7             0        2.518217   -0.250889    0.004186
   21          1             0        2.533815   -1.242258    0.009338
   22          6             0        3.776805    0.466568    0.001924
   23          1             0        3.867095    1.086129   -0.880831
   24          1             0        3.861433    1.100926    0.874627
   25          1             0        4.582274   -0.255016    0.010619
 ---------------------------------------------------------------------
 Rotational constants (GHZ):      2.2788778      0.6322432      0.5583544
 Isotopes: C-12,H-1,H-1,H-1,C-12,O-16,N-14,H-1,C-12,C-12,H-1,H-1,H-1,C-12,H-1,H-1
 ,H-1,C-12,O-16,N-14,H-1,C-12,H-1,H-1,H-1
 Leave Link  202 at Sun Feb 12 20:46:27 2006, MaxMem=   16777216 cpu:       0.0
 (Enter /usr/local/g98/l301.exe)
 Standard basis: 6-31G(d) (6D, 7F)
 There are   193 symmetry adapted basis functions of A   symmetry.
 Crude estimate of integral set expansion from redundant integrals=1.000.
 Integral buffers will be    262144 words long.
 Raffenetti 1 integral format.
 Two-electron integral symmetry is turned on.
   193 basis functions      364 primitive gaussians
    43 alpha electrons       43 beta electrons
       nuclear repulsion energy       667.3738774743 Hartrees.
 Leave Link  301 at Sun Feb 12 20:46:27 2006, MaxMem=   16777216 cpu:       0.0
 (Enter /usr/local/g98/l302.exe)
 One-electron integrals computed using PRISM.
 NBasis=   193 RedAO= T  NBF=   193
 NBsUse=   193 1.00D-04 NBFU=   193
 Leave Link  302 at Sun Feb 12 20:46:28 2006, MaxMem=   16777216 cpu:       0.8
 (Enter /usr/local/g98/l303.exe)
 DipDrv:  MaxL=1.
 Leave Link  303 at Sun Feb 12 20:46:28 2006, MaxMem=   16777216 cpu:       0.3
 (Enter /usr/local/g98/l401.exe)
 Initial guess read from the read-write file:
 Guess basis functions will be translated to current atomic coordinates.
 Leave Link  401 at Sun Feb 12 20:46:29 2006, MaxMem=   16777216 cpu:       0.1
 (Enter /usr/local/g98/l502.exe)
 IExCor=   0 DFT=F Ex=HF Corr=None ScaHFX= 1.0000
 ScaDFX=  0.0000  0.0000  0.0000  0.0000
 IRadAn=      0 IRanWt=     -1 IRanGd=            0 ICorTp=0
 Using DIIS extrapolation.
 Closed shell SCF:
 Requested convergence on RMS density matrix=1.00D-08 within  64 cycles.
 Requested convergence on MAX density matrix=1.00D-06.
 Integral symmetry usage will be decided dynamically.
 IEnd=    127088 IEndB=    127088 NGot=  16777216 MDV=  16691795
 LenX=  16691795
 Fock matrices will be formed incrementally for  20 cycles.

 Cycle   1  Pass 1  IDiag 1:
 Petite list used in FoFDir.
 MinBra= 0 MaxBra= 2 Meth= 1.
 IRaf=       0 NMat=   1 IRICut=       1 DoRegI=T DoRafI=F ISym2E= 1 JSym2E=1.
 E=-0.119926635601346D+04
 DIIS: error= 8.50D-05 at cycle   1.
 RMSDP=6.61D-06 MaxDP=1.13D-04

 Cycle   2  Pass 1  IDiag 1:
 RMSU=  6.61D-06    CP:  1.00D+00
 E=-0.119926635726472D+04 Delta-E=       -0.000001251256
 DIIS: error= 2.49D-05 at cycle   2.
 Coeff: 0.138D+00-0.114D+01
 RMSDP=2.16D-06 MaxDP=3.91D-05

 Cycle   3  Pass 1  IDiag 1:
 RMSU=  1.79D-06    CP:  1.00D+00  1.18D+00
 E=-0.119926635737396D+04 Delta-E=       -0.000000109244
 DIIS: error= 1.23D-05 at cycle   3.
 Coeff: 0.102D+00-0.338D+00-0.764D+00
 RMSDP=7.32D-07 MaxDP=2.05D-05

 Cycle   4  Pass 1  IDiag 1:
 RMSU=  6.54D-07    CP:  1.00D+00  1.23D+00  9.76D-01
 E=-0.119926635739048D+04 Delta-E=       -0.000000016521
 DIIS: error= 4.13D-06 at cycle   4.
 Coeff: 0.449D-02 0.419D-01-0.111D+00-0.935D+00
 RMSDP=2.81D-07 MaxDP=6.93D-06

 Cycle   5  Pass 1  IDiag 1:
 RMSU=  1.69D-07    CP:  1.00D+00  1.24D+00  1.09D+00  1.12D+00
 E=-0.119926635739252D+04 Delta-E=       -0.000000002039
 DIIS: error= 1.38D-06 at cycle   5.
 Coeff:-0.119D-01 0.504D-01 0.807D-01-0.178D+00-0.942D+00
 RMSDP=1.22D-07 MaxDP=2.38D-06

 Cycle   6  Pass 1  IDiag 1:
 RMSU=  6.14D-08    CP:  1.00D+00  1.24D+00  1.12D+00  1.25D+00  1.15D+00
 E=-0.119926635739272D+04 Delta-E=       -0.000000000200
 DIIS: error= 3.48D-07 at cycle   6.
 Coeff: 0.661D-03-0.883D-02 0.532D-02 0.912D-01 0.113D+00-0.120D+01
 RMSDP=4.66D-08 MaxDP=1.07D-06

 Cycle   7  Pass 1  IDiag 1:
 RMSU=  2.04D-08    CP:  1.00D+00  1.24D+00  1.13D+00  1.27D+00  1.29D+00
                    CP:  1.45D+00
 E=-0.119926635739276D+04 Delta-E=       -0.000000000038
 DIIS: error= 1.65D-07 at cycle   7.
 Coeff: 0.142D-02-0.658D-02-0.845D-02 0.231D-01 0.128D+00-0.884D-01
 Coeff:-0.105D+01
 RMSDP=1.80D-08 MaxDP=5.11D-07

 Cycle   8  Pass 1  IDiag 1:
 RMSU=  9.30D-09    CP:  1.00D+00  1.24D+00  1.13D+00  1.28D+00  1.32D+00
                    CP:  1.64D+00  1.37D+00
 E=-0.119926635739285D+04 Delta-E=       -0.000000000089
 DIIS: error= 7.73D-08 at cycle   8.
 Coeff: 0.164D-04 0.849D-03-0.140D-02-0.145D-01-0.460D-02 0.193D+00
 Coeff:-0.114D+00-0.106D+01
 RMSDP=8.32D-09 MaxDP=2.62D-07

 SCF Done:  E(RHF) =  -531.892479919     A.U. after    8 cycles
             Convg  =    0.8325D-08             -V/T =  2.0014
             S**2   =   0.0000
 KE= 5.311438752051D+02 PE=-2.580809784982D+03 EE= 8.503995523836D+02
 Leave Link  502 at Sun Feb 12 20:49:09 2006, MaxMem=   16777216 cpu:     159.6
 (Enter /usr/local/g98/l701.exe)
 Compute integral first derivatives.
 ... and contract with generalized density number  0.
 Leave Link  701 at Sun Feb 12 20:49:10 2006, MaxMem=   16777216 cpu:       0.9
 (Enter /usr/local/g98/l702.exe)
 L702 exits ... SP integral derivatives will be done elsewhere.
 Leave Link  702 at Sun Feb 12 20:49:10 2006, MaxMem=   16777216 cpu:       0.0
 (Enter /usr/local/g98/l703.exe)
 Compute integral first derivatives.
 Integral derivatives from FoFDir, PRISM(SPDF).
 Symmetry not used in FoFDir.
 MinBra= 0 MaxBra= 2 Meth= 1.
 IRaf=       0 NMat=   1 IRICut=       1 DoRegI=T DoRafI=F ISym2E= 0 JSym2E=0.
 Leave Link  703 at Sun Feb 12 20:50:52 2006, MaxMem=   16777216 cpu:     102.1
 (Enter /usr/local/g98/l716.exe)
 ***** Axes restored to original set *****
 -------------------------------------------------------------------
 Center     Atomic                   Forces (Hartrees/Bohr)
 Number     Number              X              Y              Z
 -------------------------------------------------------------------
    1          6          -0.000000139   -0.000000472    0.000000043
    2          1           0.000000203    0.000000472   -0.000000147
    3          1          -0.000000040    0.000000016   -0.000000061
    4          1          -0.000000098    0.000000015    0.000000194
    5          6           0.000000138    0.000000546   -0.000000148
    6          8          -0.000000220   -0.000000589    0.000000045
    7          7          -0.000000439    0.000000276    0.000000011
    8          1           0.000000107    0.000000155   -0.000000001
    9          6           0.000000404   -0.000000386    0.000000095
   10          6          -0.000000107    0.000000105    0.000000061
   11          1           0.000000005   -0.000000024   -0.000000044
   12          1           0.000000015   -0.000000051   -0.000000058
   13          1           0.000000064   -0.000000030   -0.000000029
   14          6          -0.000000075    0.000000064   -0.000000033
   15          1           0.000000005   -0.000000068    0.000000007
   16          1           0.000000011   -0.000000023    0.000000060
   17          1           0.000000039   -0.000000080    0.000000069
   18          6           0.000000061   -0.000000239   -0.000000022
   19          8           0.000000002    0.000000319   -0.000000004
   20          7          -0.000000621    0.000000103   -0.000000027
[...]
    11  H    0.000000
    12  H    1.759801   0.000000
    13  H    1.754598   1.758717   0.000000
    14  C    2.798676   3.483031   2.774005   0.000000
    15  H    3.133115   3.762319   2.565963   1.084781   0.000000
    16  H    3.795312   4.311203   3.762342   1.084742   1.758525
    17  H    2.622616   3.795163   3.130548   1.079979   1.754727
    18  C    3.455420   2.719601   2.820502   2.519011   2.818204
    19  O    4.318737   3.381407   3.911198   3.439877   3.905435
    20  N    4.004752   3.255939   2.777142   2.994767   2.778610
    21  H    3.726869   3.272563   2.268136   2.808687   2.277374
    22  C    5.392210   4.405613   4.077168   4.344481   4.076834
    23  H    5.631620   4.351215   4.386590   5.019796   4.871684
    24  H    6.024887   5.146772   4.870199   4.551865   4.381869
    25  H    5.864479   4.975113   4.343158   4.844875   4.344288
                   16         17         18         19         20
    16  H    0.000000
    17  H    1.759974   0.000000
    18  C    2.718510   3.454767   0.000000
    19  O    3.373368   4.315318   1.205429   0.000000
    20  N    3.261391   4.006507   1.343917   2.226013   0.000000
    21  H    3.285917   3.732526   2.029370   3.107532   0.991505
    22  C    4.409093   5.393037   2.434713   2.735647   1.448723
    23  H    5.149554   6.026719   2.758774   2.769461   2.095315
    24  H    4.351698   5.630038   2.757387   2.766694   2.095067
    25  H    4.980585   5.866004   3.305069   3.782032   2.064072
                   21         22         23         24         25
    21  H    0.000000
    22  C    2.113095   0.000000
    23  H    2.826915   1.082250   0.000000
    24  H    2.828744   1.082211   1.755529   0.000000
    25  H    2.273948   1.081453   1.762054   1.762016   0.000000
 Stoichiometry    C7H14N2O2
 Framework group  C1[X(C7H14N2O2)]
 Deg. of freedom   69
 Full point group                 C1      NOp   1
 Largest Abelian subgroup         C1      NOp   1
 Largest concise Abelian subgroup C1      NOp   1
                         Standard orientation:                         
 ---------------------------------------------------------------------
 Center     Atomic     Atomic              Coordinates (Angstroms)
 Number     Number      Type              X           Y           Z
 ---------------------------------------------------------------------
    1          6             0       -3.284730    1.356451    0.006052
    2          1             0       -2.800197    2.297097   -0.224989
    3          1             0       -4.080786    1.174953   -0.703937
    4          1             0       -3.730455    1.425708    0.992426
    5          6             0       -2.341812    0.170352   -0.012312
    6          8             0       -2.767950   -0.956933   -0.005604
    7          7             0       -1.030520    0.480694   -0.015269
    8          1             0       -0.751938    1.436568   -0.019083
    9          6             0        0.069838   -0.470194    0.000545
   10          6             0        0.040216   -1.352274   -1.260303
   11          1             0       -0.895077   -1.890782   -1.298973
   12          1             0        0.128128   -0.740784   -2.151881
   13          1             0        0.849440   -2.074757   -1.261203
   14          6             0        0.030634   -1.323870    1.280612
   15          1             0        0.841116   -2.044491    1.304567
   16          1             0        0.110222   -0.692408    2.159013
   17          1             0       -0.904109   -1.863104    1.323482
   18          6             0        1.342983    0.400941   -0.003203
   19          8             0        1.289394    1.605151   -0.011329
   20          7             0        2.518217   -0.250889    0.004184
   21          1             0        2.533815   -1.242259    0.009336
   22          6             0        3.776806    0.466569    0.001924
   23          1             0        3.867090    1.086140   -0.880824
   24          1             0        3.861439    1.100916    0.874634
   25          1             0        4.582275   -0.255015    0.010606
 ---------------------------------------------------------------------
 Rotational constants (GHZ):      2.2788771      0.6322429      0.5583541
 Isotopes: C-12,H-1,H-1,H-1,C-12,O-16,N-14,H-1,C-12,C-12,H-1,H-1,H-1,C-12,H-1,H-1
 ,H-1,C-12,O-16,N-14,H-1,C-12,H-1,H-1,H-1
 Leave Link  202 at Sun Feb 12 22:22:52 2006, MaxMem=   16777216 cpu:       0.0
 (Enter /usr/local/g98/l601.exe)
 Copying SCF densities to generalized density rwf, ISCF=0 IROHF=0.

 **********************************************************************

            Population analysis using the SCF density.

 **********************************************************************

 Alpha  occ. eigenvalues --  -20.53683 -20.51218 -15.59579 -15.57407 -11.35474
 Alpha  occ. eigenvalues --  -11.34199 -11.29208 -11.26597 -11.22493 -11.22131
 Alpha  occ. eigenvalues --  -11.22119  -1.40696  -1.38023  -1.24410  -1.23445
 Alpha  occ. eigenvalues --   -1.07477  -0.98963  -0.96299  -0.95037  -0.87150
 Alpha  occ. eigenvalues --   -0.80856  -0.75451  -0.73569  -0.66330  -0.65653
 Alpha  occ. eigenvalues --   -0.64282  -0.62740  -0.62179  -0.59989  -0.58916
 Alpha  occ. eigenvalues --   -0.58605  -0.56587  -0.56199  -0.55909  -0.54635
 Alpha  occ. eigenvalues --   -0.53057  -0.51451  -0.51224  -0.48693  -0.42546
 Alpha  occ. eigenvalues --   -0.40546  -0.40275  -0.38041
 Alpha virt. eigenvalues --    0.19244   0.19927   0.21399   0.24818   0.25652
 Alpha virt. eigenvalues --    0.26952   0.29319   0.30455   0.31054   0.31280
 Alpha virt. eigenvalues --    0.32820   0.33681   0.33884   0.34306   0.35834
 Alpha virt. eigenvalues --    0.36312   0.37541   0.38872   0.40607   0.42999
 Alpha virt. eigenvalues --    0.44679   0.47565   0.52069   0.55070   0.62433
 Alpha virt. eigenvalues --    0.63861   0.69399   0.72163   0.72647   0.73552
 Alpha virt. eigenvalues --    0.74264   0.76045   0.76598   0.77566   0.80089
 Alpha virt. eigenvalues --    0.83403   0.85998   0.87838   0.90641   0.91611
 Alpha virt. eigenvalues --    0.93397   0.93872   0.98570   0.99966   1.00900
 Alpha virt. eigenvalues --    1.02832   1.03369   1.03732   1.04934   1.10766
 Alpha virt. eigenvalues --    1.12011   1.12189   1.12576   1.13962   1.14867
 Alpha virt. eigenvalues --    1.16902   1.18087   1.18527   1.19390   1.20281
 Alpha virt. eigenvalues --    1.21194   1.21803   1.22332   1.23054   1.24170
 Alpha virt. eigenvalues --    1.25715   1.27766   1.28147   1.30749   1.36081
 Alpha virt. eigenvalues --    1.37314   1.42060   1.45664   1.49197   1.53215
 Alpha virt. eigenvalues --    1.55317   1.56450   1.60259   1.62969   1.64858
 Alpha virt. eigenvalues --    1.67097   1.74778   1.75347   1.75954   1.78763
 Alpha virt. eigenvalues --    1.80537   1.92226   1.93564   1.99077   2.04041
 Alpha virt. eigenvalues --    2.05007   2.06092   2.10740   2.12991   2.14329
 Alpha virt. eigenvalues --    2.14918   2.16695   2.17289   2.20217   2.21492
 Alpha virt. eigenvalues --    2.25206   2.25448   2.27605   2.32019   2.33477
 Alpha virt. eigenvalues --    2.36421   2.38091   2.40752   2.42051   2.44750
 Alpha virt. eigenvalues --    2.49039   2.51765   2.55922   2.57917   2.58948
 Alpha virt. eigenvalues --    2.61033   2.61088   2.63205   2.70058   2.70970
 Alpha virt. eigenvalues --    2.72541   2.75924   2.77955   2.80904   2.86021
 Alpha virt. eigenvalues --    2.86982   2.95192   2.97233   3.00827   3.03453
 Alpha virt. eigenvalues --    3.08624   3.14397   3.16711   3.28263   3.34177
 Alpha virt. eigenvalues --    3.38873   3.40862   3.54351   3.63074   4.39971
 Alpha virt. eigenvalues --    4.45131   4.52031   4.53593   4.64923   4.70509
 Alpha virt. eigenvalues --    4.72450   4.72935   4.93670   4.96213   5.19380
          Condensed to atoms (all electrons):
              1          2          3          4          5          6
  1  C    5.239993   0.377511   0.383142   0.379138   0.373633  -0.072789
  2  H    0.377511   0.523830  -0.022770  -0.022818  -0.041338   0.002666
  3  H    0.383142  -0.022770   0.479726  -0.019887  -0.029831   0.001612
  4  H    0.379138  -0.022818  -0.019887   0.487997  -0.026450   0.000289
  5  C    0.373633  -0.041338  -0.029831  -0.026450   4.138551   0.584977
  6  O   -0.072789   0.002666   0.001612   0.000289   0.584977   8.201724
  7  N   -0.109954   0.007237   0.002788   0.000570   0.274254  -0.100968
  8  H   -0.000433   0.001261   0.000010   0.000035  -0.013104   0.001934
  9  C    0.004593   0.000282  -0.000091  -0.000149  -0.029929   0.011541
 10  C   -0.000365  -0.000001   0.000023  -0.000003  -0.002863  -0.008692
 11  H    0.000198  -0.000013   0.000000  -0.000001   0.001481   0.008872
 12  H   -0.000014   0.000000  -0.000003   0.000001   0.000007  -0.000064
 13  H    0.000006   0.000000   0.000000   0.000000   0.000140   0.000153
 14  C   -0.000424   0.000007  -0.000003   0.000042  -0.002151  -0.008778
 15  H    0.000006   0.000000   0.000000  -0.000001   0.000114   0.000143
 16  H   -0.000008  -0.000002   0.000001  -0.000005  -0.000089  -0.000072
 17  H    0.000196  -0.000008  -0.000001  -0.000008   0.001552   0.008977
 18  C   -0.000054  -0.000048   0.000000   0.000001   0.003546   0.000237
 19  O   -0.000060  -0.000037   0.000000   0.000000   0.000280  -0.000004
 20  N    0.000000   0.000000   0.000000   0.000000  -0.000088  -0.000001
 21  H    0.000000   0.000000   0.000000   0.000000   0.000002   0.000001
 22  C    0.000000   0.000000   0.000000   0.000000   0.000001   0.000000
 23  H    0.000000   0.000000   0.000000   0.000000   0.000000   0.000000
 24  H    0.000000   0.000000   0.000000   0.000000   0.000000   0.000000
 25  H    0.000000   0.000000   0.000000   0.000000   0.000000   0.000000
              7          8          9         10         11         12
  1  C   -0.109954  -0.000433   0.004593  -0.000365   0.000198  -0.000014
  2  H    0.007237   0.001261   0.000282  -0.000001  -0.000013   0.000000
  3  H    0.002788   0.000010  -0.000091   0.000023   0.000000  -0.000003
  4  H    0.000570   0.000035  -0.000149  -0.000003  -0.000001   0.000001
  5  C    0.274254  -0.013104  -0.029929  -0.002863   0.001481   0.000007
  6  O   -0.100968   0.001934   0.011541  -0.008692   0.008872  -0.000064
  7  N    7.470526   0.304476   0.195410  -0.064831  -0.006385   0.000713
  8  H    0.304476   0.278539  -0.031656   0.003289  -0.000180   0.000164
  9  C    0.195410  -0.031656   5.005563   0.356861  -0.026278  -0.037850
 10  C   -0.064831   0.003289   0.356861   5.169953   0.389074   0.388326
 11  H   -0.006385  -0.000180  -0.026278   0.389074   0.444268  -0.020963
 12  H    0.000713   0.000164  -0.037850   0.388326  -0.020963   0.517262
 13  H    0.004818  -0.000077  -0.036267   0.377926  -0.022666  -0.026367
 14  C   -0.064942   0.003181   0.356739  -0.067710  -0.003888   0.004710
 15  H    0.004817  -0.000073  -0.036161  -0.002260   0.000294  -0.000084
 16  H    0.000806   0.000188  -0.037936   0.004723  -0.000021  -0.000113
 17  H   -0.006638  -0.000184  -0.026218  -0.003950   0.001185  -0.000019
 18  C   -0.050254  -0.008894   0.412384  -0.061494   0.003657  -0.002313
 19  O   -0.016807   0.030300  -0.069142  -0.000006  -0.000060   0.000551
 20  N    0.003052   0.001363  -0.121820   0.004312   0.000001   0.000291
 21  H    0.000090  -0.000040   0.000099   0.000391  -0.000032  -0.000030
 22  C   -0.000066  -0.000047   0.004163  -0.000195   0.000003  -0.000036
 23  H    0.000000  -0.000001  -0.000019  -0.000025  -0.000001   0.000006
 24  H    0.000000  -0.000001  -0.000018   0.000003   0.000000   0.000000
 25  H    0.000000   0.000000   0.000033  -0.000009   0.000000   0.000000
             13         14         15         16         17         18
  1  C    0.000006  -0.000424   0.000006  -0.000008   0.000196  -0.000054
  2  H    0.000000   0.000007   0.000000  -0.000002  -0.000008  -0.000048
  3  H    0.000000  -0.000003   0.000000   0.000001  -0.000001   0.000000
  4  H    0.000000   0.000042  -0.000001  -0.000005  -0.000008   0.000001
  5  C    0.000140  -0.002151   0.000114  -0.000089   0.001552   0.003546
  6  O    0.000153  -0.008778   0.000143  -0.000072   0.008977   0.000237
  7  N    0.004818  -0.064942   0.004817   0.000806  -0.006638  -0.050254
  8  H   -0.000077   0.003181  -0.000073   0.000188  -0.000184  -0.008894
  9  C   -0.036267   0.356739  -0.036161  -0.037936  -0.026218   0.412384
 10  C    0.377926  -0.067710  -0.002260   0.004723  -0.003950  -0.061494
 11  H   -0.022666  -0.003888   0.000294  -0.000021   0.001185   0.003657
 12  H   -0.026367   0.004710  -0.000084  -0.000113  -0.000019  -0.002313
 13  H    0.563289  -0.002316   0.000529  -0.000083   0.000305  -0.004906
 14  C   -0.002316   5.169861   0.378180   0.388333   0.389059  -0.061374
 15  H    0.000529   0.378180   0.562352  -0.026318  -0.022722  -0.004930
 16  H   -0.000083   0.388333  -0.026318   0.517742  -0.021084  -0.002346
 17  H    0.000305   0.389059  -0.022722  -0.021084   0.444924   0.003675
 18  C   -0.004906  -0.061374  -0.004930  -0.002346   0.003675   4.147001
 19  O   -0.000015  -0.000044  -0.000014   0.000571  -0.000060   0.602377
 20  N    0.001328   0.004161   0.001407   0.000293  -0.000002   0.276684
 21  H    0.001968   0.000372   0.001906  -0.000028  -0.000032  -0.021196
 22  C    0.000031  -0.000196   0.000029  -0.000035   0.000003  -0.029400
 23  H   -0.000006   0.000002   0.000001   0.000000   0.000000  -0.003478
 24  H    0.000001  -0.000025  -0.000006   0.000006  -0.000001  -0.003457
 25  H   -0.000004  -0.000009  -0.000004   0.000000   0.000000   0.004739
             19         20         21         22         23         24
  1  C   -0.000060   0.000000   0.000000   0.000000   0.000000   0.000000
  2  H   -0.000037   0.000000   0.000000   0.000000   0.000000   0.000000
  3  H    0.000000   0.000000   0.000000   0.000000   0.000000   0.000000
  4  H    0.000000   0.000000   0.000000   0.000000   0.000000   0.000000
  5  C    0.000280  -0.000088   0.000002   0.000001   0.000000   0.000000
  6  O   -0.000004  -0.000001   0.000001   0.000000   0.000000   0.000000
  7  N   -0.016807   0.003052   0.000090  -0.000066   0.000000   0.000000
  8  H    0.030300   0.001363  -0.000040  -0.000047  -0.000001  -0.000001
  9  C   -0.069142  -0.121820   0.000099   0.004163  -0.000019  -0.000018
 10  C   -0.000006   0.004312   0.000391  -0.000195  -0.000025   0.000003
 11  H   -0.000060   0.000001  -0.000032   0.000003  -0.000001   0.000000
 12  H    0.000551   0.000291  -0.000030  -0.000036   0.000006   0.000000
 13  H   -0.000015   0.001328   0.001968   0.000031  -0.000006   0.000001
 14  C   -0.000044   0.004161   0.000372  -0.000196   0.000002  -0.000025
 15  H   -0.000014   0.001407   0.001906   0.000029   0.000001  -0.000006
 16  H    0.000571   0.000293  -0.000028  -0.000035   0.000000   0.000006
 17  H   -0.000060  -0.000002  -0.000032   0.000003   0.000000  -0.000001
 18  C    0.602377   0.276684  -0.021196  -0.029400  -0.003478  -0.003457
 19  O    8.188015  -0.110717   0.002605   0.008822   0.002013   0.002029
 20  N   -0.110717   7.341862   0.326944   0.198440  -0.043814  -0.043764
 21  H    0.002605   0.326944   0.314364  -0.022108   0.001993   0.002001
 22  C    0.008822   0.198440  -0.022108   4.899724   0.405761   0.405741
 23  H    0.002013  -0.043814   0.001993   0.405761   0.507719  -0.034245
 24  H    0.002029  -0.043764   0.002001   0.405741  -0.034245   0.507417
 25  H    0.000434  -0.036577  -0.004719   0.396638  -0.027928  -0.027864
             25
  1  C    0.000000
  2  H    0.000000
  3  H    0.000000
  4  H    0.000000
  5  C    0.000000
  6  O    0.000000
  7  N    0.000000
  8  H    0.000000
  9  C    0.000033
 10  C   -0.000009
 11  H    0.000000
 12  H    0.000000
 13  H   -0.000004
 14  C   -0.000009
 15  H   -0.000004
 16  H    0.000000
 17  H    0.000000
 18  C    0.004739
 19  O    0.000434
 20  N   -0.036577
 21  H   -0.004719
 22  C    0.396638
 23  H   -0.027928
 24  H   -0.027864
 25  H    0.525777
 Total atomic charges:
              1
  1  C   -0.574318
  2  H    0.174242
  3  H    0.205285
  4  H    0.201249
  5  C    0.767305
  6  O   -0.631759
  7  N   -0.848711
  8  H    0.429953
  9  C    0.105866
 10  C   -0.482474
 11  H    0.231456
 12  H    0.175825
 13  H    0.142214
 14  C   -0.482789
 15  H    0.142793
 16  H    0.175477
 17  H    0.231049
 18  C    0.799844
 19  O   -0.641028
 20  N   -0.803353
 21  H    0.395449
 22  C   -0.267270
 23  H    0.192020
 24  H    0.192183
 25  H    0.169492
 Sum of Mulliken charges=   0.00000
 Atomic charges with hydrogens summed into heavy atoms:
              1
  1  C    0.006458
  2  H    0.000000
  3  H    0.000000
  4  H    0.000000
  5  C    0.767305
  6  O   -0.631759
  7  N   -0.418758
  8  H    0.000000
  9  C    0.105866
 10  C    0.067021
 11  H    0.000000
 12  H    0.000000
 13  H    0.000000
 14  C    0.066530
 15  H    0.000000
 16  H    0.000000
 17  H    0.000000
 18  C    0.799844
 19  O   -0.641028
 20  N   -0.407903
 21  H    0.000000
 22  C    0.286424
 23  H    0.000000
 24  H    0.000000
 25  H    0.000000
 Sum of Mulliken charges=   0.00000
 Electronic spatial extent (au):  <R**2>=  2134.1096
 Charge=     0.0000 electrons
 Dipole moment (Debye):
    X=     3.2381    Y=    -0.4530    Z=     0.0645  Tot=     3.2702
 Quadrupole moment (Debye-Ang):
   XX=   -63.4116   YY=   -70.2339   ZZ=   -66.6051
   XY=   -13.9104   XZ=    -0.0633   YZ=     0.0553
 Octapole moment (Debye-Ang**2):
  XXX=    54.1013  YYY=    -5.2274  ZZZ=     0.3699  XYY=     1.2803
  XXY=    20.9783  XXZ=     0.0909  XZZ=    -3.3916  YZZ=     2.4699
  YYZ=     0.0094  XYZ=    -0.2712
 Hexadecapole moment (Debye-Ang**3):
 XXXX= -1888.8847 YYYY=  -518.6758 ZZZZ=  -245.9743 XXXY=   -75.7424
 XXXZ=     2.4960 YYYX=   -19.9812 YYYZ=    -0.7829 ZZZX=    -1.8905
 ZZZY=     0.8337 XXYY=  -424.9223 XXZZ=  -372.0143 YYZZ=  -127.3524
 XXYZ=     1.0538 YYXZ=    -0.0222 ZZXY=     7.9132
 N-N= 6.673737540838D+02 E-N=-2.580809533785D+03  KE= 5.311438643989D+02
 Leave Link  601 at Sun Feb 12 22:22:52 2006, MaxMem=   16777216 cpu:       0.4
 (Enter /usr/local/g98/l9999.exe)

 Test job not archived.
 1\1\GINC-LYNX\FOpt\RHF\6-31G(d)\C7H14N2O2\FYD\12-Feb-2006\0\\#P HF/6-3
 1G* OPT=(VTIGHT,CALCFC) FREQ SCF(CONVER=8) TEST\\Optimization used by 
 R.E.D.\\0,1\C,-3.2847482185,1.3564073314,0.006051948\H,-2.8002276378,2
 .2970597863,-0.2249885303\H,-4.0808018914,1.1748996587,-0.7039369443\H
 ,-3.730473449,1.4256588911,0.9924260059\C,-2.3418139715,0.1703207186,-
 0.0123120921\O,-2.7679378112,-0.9569698478,-0.0056044931\N,-1.03052682
 32,0.4806800097,-0.0152689891\H,-0.7519572511,1.4365583621,-0.01908275
 57\C,0.0698437715,-0.4701933254,0.0005447009\C,0.0402341892,-1.3522732
 287,-1.2603029932\H,-0.8950518816,-1.8907938448,-1.2989726151\H,0.1281
 380273,-0.7407821456,-2.1518814368\H,0.8494675674,-2.0747462313,-1.261
 2033473\C,0.0306512553,-1.3238695495,1.2806123354\H,0.8411429127,-2.04
 44798761,1.3045672709\H,0.1102311237,-0.6924069358,2.1590132138\H,-0.9
 040841921,-1.8631157208,1.3234817863\C,1.3429780532,0.400959112,-0.003
 2033083\O,1.2893728984,1.6051680998,-0.0113287878\N,2.5182204957,-0.25
 0856167,0.0041837884\H,2.53383156,-1.2422253004,0.0093355378\C,3.77679
 98284,0.466618472,0.001924334\H,3.867076025,1.0861907986,-0.8808243578
 \H,3.8614244217,1.1009671207,0.8746336878\H,4.5822788145,-0.2549546585
 ,0.0106055891\\Version=x86-Linux-G98RevA.11.4\HF=-531.8924799\RMSD=2.6
 05e-09\RMSF=4.898e-09\Dipole=1.2739448,-0.178213,0.025363\PG=C01 [X(C7
 H14N2O2)]\\@


 IF GOD HAD MEANT MAN TO SEE THE SUN RISE, HE
 WOULD HAVE SCHEDULED IT FOR A LATER HOUR.
 Leave Link 9999 at Sun Feb 12 22:22:52 2006, MaxMem=   16777216 cpu:       0.0
 Job cpu time:  0 days  2 hours 12 minutes 35.3 seconds.
 File lengths (MBytes):  RWF=  122 Int=    0 D2E=    0 Chk=    5 Scr=    1
 Normal termination of Gaussian 98.

