 Entering Gaussian System, Link 0=g98
 Initial command:
 /usr/local/g98/l1.exe /home/fyd/0QM_SCR/Gau-20499.inp -scrdir=/home/fyd/0QM_SCR/
 Entering Link 1 = /usr/local/g98/l1.exe PID=     20500.
  
 Copyright (c) 1988,1990,1992,1993,1995,1998 Gaussian, Inc.
                  All Rights Reserved.
  
 This is part of the Gaussian(R) 98 program.  It is based on
 the Gaussian 94(TM) system (copyright 1995 Gaussian, Inc.),
 the Gaussian 92(TM) system (copyright 1992 Gaussian, Inc.),
 the Gaussian 90(TM) system (copyright 1990 Gaussian, Inc.),
 the Gaussian 88(TM) system (copyright 1988 Gaussian, Inc.),
 the Gaussian 86(TM) system (copyright 1986 Carnegie Mellon
 University), and the Gaussian 82(TM) system (copyright 1983
 Carnegie Mellon University). Gaussian is a federally registered
 trademark of Gaussian, Inc.
  
 This software contains proprietary and confidential information,
 including trade secrets, belonging to Gaussian, Inc.
  
 This software is provided under written license and may be
 used, copied, transmitted, or stored only in accord with that
 written license.
  
 The following legend is applicable only to US Government
 contracts under DFARS:
  
                    RESTRICTED RIGHTS LEGEND
  
 Use, duplication or disclosure by the US Government is subject
 to restrictions as set forth in subparagraph (c)(1)(ii) of the
 Rights in Technical Data and Computer Software clause at DFARS
 252.227-7013.
  
 Gaussian, Inc.
 Carnegie Office Park, Building 6, Pittsburgh, PA 15106 USA
  
 The following legend is applicable only to US Government
 contracts under FAR:
  
                    RESTRICTED RIGHTS LEGEND
  
 Use, reproduction and disclosure by the US Government is subject
 to restrictions as set forth in subparagraph (c) of the
 Commercial Computer Software - Restricted Rights clause at FAR
 52.227-19.
  
 Gaussian, Inc.
 Carnegie Office Park, Building 6, Pittsburgh, PA 15106 USA
  
  
 ---------------------------------------------------------------
 Warning -- This program may not be used in any manner that
 competes with the business of Gaussian, Inc. or will provide
 assistance to any competitor of Gaussian, Inc.  The licensee
 of this program is prohibited from giving any competitor of
 Gaussian, Inc. access to this program.  By using this program,
 the user acknowledges that Gaussian, Inc. is engaged in the
 business of creating and licensing software in the field of
 computational chemistry and represents and warrants to the
 licensee that it is not a competitor of Gaussian, Inc. and that
 it will not use this program in any manner prohibited above.
 ---------------------------------------------------------------
  

 Cite this work as:
 Gaussian 98, Revision A.11.4,
 M. J. Frisch, G. W. Trucks, H. B. Schlegel, G. E. Scuseria, 
 M. A. Robb, J. R. Cheeseman, V. G. Zakrzewski, J. A. Montgomery, Jr., 
 R. E. Stratmann, J. C. Burant, S. Dapprich, J. M. Millam, 
 A. D. Daniels, K. N. Kudin, M. C. Strain, O. Farkas, J. Tomasi, 
 V. Barone, M. Cossi, R. Cammi, B. Mennucci, C. Pomelli, C. Adamo, 
 S. Clifford, J. Ochterski, G. A. Petersson, P. Y. Ayala, Q. Cui, 
 K. Morokuma, N. Rega, P. Salvador, J. J. Dannenberg, D. K. Malick, 
 A. D. Rabuck, K. Raghavachari, J. B. Foresman, J. Cioslowski, 
 J. V. Ortiz, A. G. Baboul, B. B. Stefanov, G. Liu, A. Liashenko, 
 P. Piskorz, I. Komaromi, R. Gomperts, R. L. Martin, D. J. Fox, 
 T. Keith, M. A. Al-Laham, C. Y. Peng, A. Nanayakkara, M. Challacombe, 
 P. M. W. Gill, B. Johnson, W. Chen, M. W. Wong, J. L. Andres, 
 C. Gonzalez, M. Head-Gordon, E. S. Replogle, and J. A. Pople, 
 Gaussian, Inc., Pittsburgh PA, 2002.

 ***********************************************
 Gaussian 98:  x86-Linux-G98RevA.11.4 7-May-2002
                   12-Feb-2006 
 ***********************************************
 %Mem=128MB
 %NProc=1
 Will use up to    1 processors via shared memory.
 --------------------------------------------------------
 #P hf/6-31G* Opt=(VTight,CalcFC) Freq SCF(Conver=8) Test
 --------------------------------------------------------
 1/7=1,10=4,18=20,38=1/1,3;
 2/9=110,17=6,18=5,40=1/2;
 3/5=1,6=6,7=1,11=9,25=1,30=1/1,2,3;
 4//1;
 5/5=2,6=8,38=4/2;
 8/6=4,11=11,23=2/1;
 11/6=1,8=1,9=11,15=111,16=11/1,2,10;
 10/6=1,7=6/2;
 6/7=2,8=2,9=2,10=2,28=1/1;
 7/10=1,18=20,25=1/1,2,3,16;
 1/10=4,18=20/3(1);
 99//99;
 2/9=110/2;
 3/5=1,6=6,7=1,11=9,25=1,30=1/1,2,3;
 4/5=5,16=2/1;
 5/5=2,6=8,38=4/2;
 7//1,2,3,16;
 1/18=20/3(-5);
 2/9=110/2;
 6/7=2,8=2,9=2,10=2,19=2,28=1/1;
 99/9=1/99;
 Leave Link    1 at Sun Feb 12 17:04:49 2006, MaxMem=   16777216 cpu:       0.1
 (Enter /usr/local/g98/l101.exe)
 ---------------------------
 Optimization used by R.E.D.
 ---------------------------
 Symbolic Z-matrix:
 Charge =  0 Multiplicity = 1
 C                     3.164    -0.942    -0.371 
 H                     3.181    -1.008    -1.453 
 H                     3.877    -0.182    -0.067 
 H                     3.466    -1.887     0.057 
 C                     1.794    -0.579     0.161 
 O                     1.357    -1.045     1.175 
 N                     1.091     0.304    -0.605 
 H                     1.583     0.729    -1.358 
 C                    -0.094     1.027    -0.132 
 C                    -0.554     1.933    -1.285 
 H                     0.211     2.671    -1.513 
 H                    -0.759     1.355    -2.18 
 H                    -1.456     2.459    -1.001 
 C                     0.222     1.874     1.106 
 H                    -0.651     2.433     1.409 
 H                     0.531     1.251     1.933 
 H                     1.023     2.569     0.87 
 C                    -1.269     0.078     0.172 
 O                    -2.127     0.412     0.943 
 N                    -1.346    -1.051    -0.562 
 H                    -0.518    -1.359    -1.013 
 C                    -2.369    -2.036    -0.282 
 H                    -2.203    -2.533     0.668 
 H                    -3.337    -1.557    -0.255 
 H                    -2.365    -2.775    -1.074 
 Leave Link  101 at Sun Feb 12 17:04:49 2006, MaxMem=   16777216 cpu:       0.1
 (Enter /usr/local/g98/l103.exe)

 GradGradGradGradGradGradGradGradGradGradGradGradGradGradGradGradGradGrad
 Berny optimization.
 Initialization pass.
                         ----------------------------
                         !    Initial Parameters    !
                         ! (Angstroms and Degrees)  !
 ------------------------                            -------------------------
 ! Name  Definition              Value          Derivative Info.             !
 -----------------------------------------------------------------------------
 ! R1    R(1,2)                  1.0841         calculate D2E/DX2 analyticall!
 ! R2    R(1,3)                  1.0855         calculate D2E/DX2 analyticall!
 ! R3    R(1,4)                  1.0805         calculate D2E/DX2 analyticall!
 ! R4    R(1,5)                  1.5138         calculate D2E/DX2 analyticall!
 ! R5    R(5,6)                  1.1985         calculate D2E/DX2 analyticall!
 ! R6    R(5,7)                  1.3641         calculate D2E/DX2 analyticall!
 ! R7    R(7,8)                  0.9948         calculate D2E/DX2 analyticall!
 ! R8    R(7,9)                  1.4665         calculate D2E/DX2 analyticall!
 ! R9    R(9,10)                 1.5368         calculate D2E/DX2 analyticall!
 ! R10   R(9,14)                 1.5329         calculate D2E/DX2 analyticall!
 ! R11   R(9,18)                 1.5407         calculate D2E/DX2 analyticall!
 ! R12   R(10,11)                1.0871         calculate D2E/DX2 analyticall!
 ! R13   R(10,12)                1.085          calculate D2E/DX2 analyticall!
 ! R14   R(10,13)                1.0821         calculate D2E/DX2 analyticall!
 ! R15   R(14,15)                1.08           calculate D2E/DX2 analyticall!
 ! R16   R(14,16)                1.0805         calculate D2E/DX2 analyticall!
 ! R17   R(14,17)                1.0864         calculate D2E/DX2 analyticall!
 ! R18   R(18,19)                1.2009         calculate D2E/DX2 analyticall!
 ! R19   R(18,20)                1.3488         calculate D2E/DX2 analyticall!
 ! R20   R(20,21)                0.9919         calculate D2E/DX2 analyticall!
 ! R21   R(20,22)                1.4475         calculate D2E/DX2 analyticall!
 ! R22   R(22,23)                1.0849         calculate D2E/DX2 analyticall!
 ! R23   R(22,24)                1.0804         calculate D2E/DX2 analyticall!
 ! R24   R(22,25)                1.0832         calculate D2E/DX2 analyticall!
 ! A1    A(2,1,3)              108.1686         calculate D2E/DX2 analyticall!
 ! A2    A(2,1,4)              109.7376         calculate D2E/DX2 analyticall!
 ! A3    A(2,1,5)              112.3039         calculate D2E/DX2 analyticall!
 ! A4    A(3,1,4)              108.5309         calculate D2E/DX2 analyticall!
 ! A5    A(3,1,5)              109.1546         calculate D2E/DX2 analyticall!
 ! A6    A(4,1,5)              108.8727         calculate D2E/DX2 analyticall!
 ! A7    A(1,5,6)              122.2819         calculate D2E/DX2 analyticall!
 ! A8    A(1,5,7)              115.1053         calculate D2E/DX2 analyticall!
 ! A9    A(6,5,7)              122.6092         calculate D2E/DX2 analyticall!
 ! A10   A(5,7,8)              116.5331         calculate D2E/DX2 analyticall!
 ! A11   A(5,7,9)              123.6733         calculate D2E/DX2 analyticall!
 ! A12   A(8,7,9)              115.6664         calculate D2E/DX2 analyticall!
 ! A13   A(7,9,10)             106.889          calculate D2E/DX2 analyticall!
 ! A14   A(7,9,14)             111.4881         calculate D2E/DX2 analyticall!
 ! A15   A(7,9,18)             112.0998         calculate D2E/DX2 analyticall!
 ! A16   A(10,9,14)            109.9906         calculate D2E/DX2 analyticall!
 ! A17   A(10,9,18)            106.4327         calculate D2E/DX2 analyticall!
 ! A18   A(14,9,18)            109.7675         calculate D2E/DX2 analyticall!
 ! A19   A(9,10,11)            110.2991         calculate D2E/DX2 analyticall!
 ! A20   A(9,10,12)            111.1851         calculate D2E/DX2 analyticall!
 ! A21   A(9,10,13)            109.8257         calculate D2E/DX2 analyticall!
 ! A22   A(11,10,12)           108.76           calculate D2E/DX2 analyticall!
 ! A23   A(11,10,13)           108.1574         calculate D2E/DX2 analyticall!
 ! A24   A(12,10,13)           108.5398         calculate D2E/DX2 analyticall!
 ! A25   A(9,14,15)            110.2386         calculate D2E/DX2 analyticall!
 ! A26   A(9,14,16)            111.0072         calculate D2E/DX2 analyticall!
 ! A27   A(9,14,17)            109.2696         calculate D2E/DX2 analyticall!
 ! A28   A(15,14,16)           108.3523         calculate D2E/DX2 analyticall!
 ! A29   A(15,14,17)           109.014          calculate D2E/DX2 analyticall!
 ! A30   A(16,14,17)           108.9205         calculate D2E/DX2 analyticall!
 ! A31   A(9,18,19)            120.0171         calculate D2E/DX2 analyticall!
 ! A32   A(9,18,20)            116.8556         calculate D2E/DX2 analyticall!
 ! A33   A(19,18,20)           122.7778         calculate D2E/DX2 analyticall!
 ! A34   A(18,20,21)           117.3669         calculate D2E/DX2 analyticall!
 ! A35   A(18,20,22)           120.3098         calculate D2E/DX2 analyticall!
 ! A36   A(21,20,22)           117.8153         calculate D2E/DX2 analyticall!
 ! A37   A(20,22,23)           111.8996         calculate D2E/DX2 analyticall!
 ! A38   A(20,22,24)           109.6557         calculate D2E/DX2 analyticall!
 ! A39   A(20,22,25)           108.6753         calculate D2E/DX2 analyticall!
 ! A40   A(23,22,24)           108.5609         calculate D2E/DX2 analyticall!
 ! A41   A(23,22,25)           109.0946         calculate D2E/DX2 analyticall!
 ! A42   A(24,22,25)           108.9082         calculate D2E/DX2 analyticall!
 ! D1    D(2,1,5,6)            142.8886         calculate D2E/DX2 analyticall!
 ! D2    D(2,1,5,7)            -36.4394         calculate D2E/DX2 analyticall!
 ! D3    D(3,1,5,6)            -97.1599         calculate D2E/DX2 analyticall!
 ! D4    D(3,1,5,7)             83.5122         calculate D2E/DX2 analyticall!
 ! D5    D(4,1,5,6)             21.1537         calculate D2E/DX2 analyticall!
 ! D6    D(4,1,5,7)           -158.1742         calculate D2E/DX2 analyticall!
 ! D7    D(1,5,7,8)             -8.7829         calculate D2E/DX2 analyticall!
 ! D8    D(1,5,7,9)           -164.9011         calculate D2E/DX2 analyticall!
 ! D9    D(6,5,7,8)            171.8916         calculate D2E/DX2 analyticall!
 ! D10   D(6,5,7,9)             15.7734         calculate D2E/DX2 analyticall!
 ! D11   D(5,7,9,10)           178.681          calculate D2E/DX2 analyticall!
 ! D12   D(5,7,9,14)            58.4499         calculate D2E/DX2 analyticall!
 ! D13   D(5,7,9,18)           -65.0641         calculate D2E/DX2 analyticall!
 ! D14   D(8,7,9,10)            22.3756         calculate D2E/DX2 analyticall!
 ! D15   D(8,7,9,14)           -97.8554         calculate D2E/DX2 analyticall!
 ! D16   D(8,7,9,18)           138.6306         calculate D2E/DX2 analyticall!
 ! D17   D(7,9,10,11)          -63.3629         calculate D2E/DX2 analyticall!
 ! D18   D(7,9,10,12)           57.3753         calculate D2E/DX2 analyticall!
 ! D19   D(7,9,10,13)          177.5227         calculate D2E/DX2 analyticall!
 ! D20   D(14,9,10,11)          57.8229         calculate D2E/DX2 analyticall!
 ! D21   D(14,9,10,12)         178.561          calculate D2E/DX2 analyticall!
 ! D22   D(14,9,10,13)         -61.2915         calculate D2E/DX2 analyticall!
 ! D23   D(18,9,10,11)         176.6722         calculate D2E/DX2 analyticall!
 ! D24   D(18,9,10,12)         -62.5897         calculate D2E/DX2 analyticall!
 ! D25   D(18,9,10,13)          57.5577         calculate D2E/DX2 analyticall!
 ! D26   D(7,9,14,15)          177.3331         calculate D2E/DX2 analyticall!
 ! D27   D(7,9,14,16)          -62.5974         calculate D2E/DX2 analyticall!
 ! D28   D(7,9,14,17)           57.5486         calculate D2E/DX2 analyticall!
 ! D29   D(10,9,14,15)          58.9445         calculate D2E/DX2 analyticall!
 ! D30   D(10,9,14,16)         179.014          calculate D2E/DX2 analyticall!
 ! D31   D(10,9,14,17)         -60.8401         calculate D2E/DX2 analyticall!
 ! D32   D(18,9,14,15)         -57.8385         calculate D2E/DX2 analyticall!
 ! D33   D(18,9,14,16)          62.231          calculate D2E/DX2 analyticall!
 ! D34   D(18,9,14,17)        -177.6231         calculate D2E/DX2 analyticall!
 ! D35   D(7,9,18,19)          156.0687         calculate D2E/DX2 analyticall!
 ! D36   D(7,9,18,20)          -30.5308         calculate D2E/DX2 analyticall!
 ! D37   D(10,9,18,19)         -87.4011         calculate D2E/DX2 analyticall!
 ! D38   D(10,9,18,20)          85.9994         calculate D2E/DX2 analyticall!
 ! D39   D(14,9,18,19)          31.5942         calculate D2E/DX2 analyticall!
 ! D40   D(14,9,18,20)        -155.0053         calculate D2E/DX2 analyticall!
 ! D41   D(9,18,20,21)          20.3699         calculate D2E/DX2 analyticall!
 ! D42   D(9,18,20,22)         176.0435         calculate D2E/DX2 analyticall!
 ! D43   D(19,18,20,21)       -166.4275         calculate D2E/DX2 analyticall!
 ! D44   D(19,18,20,22)        -10.754          calculate D2E/DX2 analyticall!
 ! D45   D(18,20,22,23)        -68.7718         calculate D2E/DX2 analyticall!
 ! D46   D(18,20,22,24)         51.7508         calculate D2E/DX2 analyticall!
 ! D47   D(18,20,22,25)        170.6949         calculate D2E/DX2 analyticall!
 ! D48   D(21,20,22,23)         86.7955         calculate D2E/DX2 analyticall!
 ! D49   D(21,20,22,24)       -152.6818         calculate D2E/DX2 analyticall!
 ! D50   D(21,20,22,25)        -33.7378         calculate D2E/DX2 analyticall!
 -----------------------------------------------------------------------------
 Trust Radius=3.00D-01 FncErr=1.00D-07 GrdErr=1.00D-07
 Number of steps in this run= 126 maximum allowed number of steps= 150.
 GradGradGradGradGradGradGradGradGradGradGradGradGradGradGradGradGradGrad

 Leave Link  103 at Sun Feb 12 17:04:49 2006, MaxMem=   16777216 cpu:       0.0
 (Enter /usr/local/g98/l202.exe)
                          Input orientation:                          
 ---------------------------------------------------------------------
 Center     Atomic     Atomic              Coordinates (Angstroms)
 Number     Number      Type              X           Y           Z
 ---------------------------------------------------------------------
    1          6             0        3.164000   -0.942000   -0.371000
    2          1             0        3.181000   -1.008000   -1.453000
    3          1             0        3.877000   -0.182000   -0.067000
    4          1             0        3.466000   -1.887000    0.057000
    5          6             0        1.794000   -0.579000    0.161000
    6          8             0        1.357000   -1.045000    1.175000
    7          7             0        1.091000    0.304000   -0.605000
    8          1             0        1.583000    0.729000   -1.358000
    9          6             0       -0.094000    1.027000   -0.132000
   10          6             0       -0.554000    1.933000   -1.285000
   11          1             0        0.211000    2.671000   -1.513000
   12          1             0       -0.759000    1.355000   -2.180000
   13          1             0       -1.456000    2.459000   -1.001000
   14          6             0        0.222000    1.874000    1.106000
   15          1             0       -0.651000    2.433000    1.409000
   16          1             0        0.531000    1.251000    1.933000
   17          1             0        1.023000    2.569000    0.870000
   18          6             0       -1.269000    0.078000    0.172000
   19          8             0       -2.127000    0.412000    0.943000
   20          7             0       -1.346000   -1.051000   -0.562000
   21          1             0       -0.518000   -1.359000   -1.013000
   22          6             0       -2.369000   -2.036000   -0.282000
   23          1             0       -2.203000   -2.533000    0.668000
   24          1             0       -3.337000   -1.557000   -0.255000
   25          1             0       -2.365000   -2.775000   -1.074000
 ---------------------------------------------------------------------
                    Distance matrix (angstroms):
                    1          2          3          4          5
     1  C    0.000000
     2  H    1.084144   0.000000
     3  H    1.085534   1.757182   0.000000
     4  H    1.080469   1.770301   1.758216   0.000000
     5  C    1.513834   2.170900   2.132717   2.125386   0.000000
     6  O    2.380331   3.199176   2.939002   2.531160   1.198466
     7  N    2.429938   2.609319   2.878791   3.298386   1.364058
     8  H    2.503192   2.362160   2.785505   3.520138   2.015625
     9  C    3.814269   4.075769   4.151475   4.604424   2.495922
    10  C    4.787958   4.756882   5.058706   5.705591   3.730169
    11  H    4.803971   4.728588   4.865191   5.816811   3.983800
    12  H    4.892711   4.651440   5.321619   5.776275   3.967171
    13  H    5.771317   5.807423   6.023963   6.650802   4.598064
    14  C    4.332061   4.859021   4.354548   5.076323   3.062910
    15  H    5.395670   5.892007   5.433193   6.118823   4.075251
    16  H    4.129207   4.857013   4.153216   4.688352   2.843247
    17  H    4.295472   4.779981   4.073240   5.146373   3.317684
    18  C    4.581128   4.860301   5.158104   5.127833   3.132689
    19  O    5.617348   5.994337   6.117267   6.111632   4.119205
    20  N    4.515358   4.614050   5.317886   4.923150   3.256549
    21  H    3.760742   3.741577   4.647179   4.158839   2.707770
    22  C    5.640820   5.764592   6.518900   5.846738   4.432794
    23  H    5.693460   5.984290   6.560017   5.738310   4.477854
    24  H    6.531055   6.649882   7.346276   6.818141   5.239914
    25  H    5.867192   5.833013   6.833759   6.005686   4.862604
                    6          7          8          9         10
     6  O    0.000000
     7  N    2.249213   0.000000
     8  H    3.100684   0.994836   0.000000
     9  C    2.847250   1.466521   2.098621   0.000000
    10  C    4.309525   2.412896   2.453918   1.536830   0.000000
    11  H    4.727295   2.683571   2.382808   2.168622   1.087131
    12  H    4.636106   2.647211   2.559790   2.178098   1.084958
    13  H    4.992591   3.359769   3.515092   2.158895   1.082098
    14  C    3.132658   2.479432   3.038855   1.532941   2.514466
    15  H    4.022848   3.409311   3.943433   2.159112   2.741723
    16  H    2.555084   2.766198   3.494262   2.169107   3.463795
    17  H    3.642194   2.703789   2.943329   2.151617   2.745077
    18  C    3.027047   2.494876   3.301304   1.540663   2.464772
    19  O    3.783507   3.572603   4.377121   2.380533   3.122780
    20  N    3.213007   2.788699   3.518673   2.463836   3.170844
    21  H    2.898545   2.349663   2.982108   2.578553   3.303414
    22  C    4.121651   4.189454   4.941792   3.818389   4.478079
    23  H    3.891631   4.529849   5.392506   4.214437   5.145733
    24  H    4.933627   4.815912   5.536136   4.148401   4.581058
    25  H    4.680191   4.652326   5.286339   4.527694   5.048713
                   11         12         13         14         15
    11  H    0.000000
    12  H    1.765685   0.000000
    13  H    1.756695   1.759166   0.000000
    14  C    2.737607   3.468360   2.756331   0.000000
    15  H    3.055777   3.748956   2.541024   1.080009   0.000000
    16  H    3.740818   4.311808   3.743767   1.080527   1.751806
    17  H    2.519610   3.735214   3.107762   1.086426   1.763886
    18  C    3.428305   2.724469   2.660838   2.514170   2.730956
    19  O    4.074465   3.537485   2.901652   2.771609   2.545618
    20  N    4.145110   2.958265   3.539057   3.714360   4.062773
    21  H    4.125814   2.964079   3.931553   3.935740   4.501448
    22  C    5.507051   4.206351   4.642796   4.891618   5.077693
    23  H    6.137245   5.031181   5.316355   5.049170   5.255373
    24  H    5.660994   4.339522   4.496992   5.127432   5.089557
    25  H    6.040481   4.567206   5.312849   5.749623   6.018833
                   16         17         18         19         20
    16  H    0.000000
    17  H    1.763280   0.000000
    18  C    2.777958   3.456233   0.000000
    19  O    2.957868   3.818439   1.200900   0.000000
    20  N    3.879092   4.557103   1.348824   2.239499   0.000000
    21  H    4.073256   4.620558   2.008282   3.090511   0.991892
    22  C    4.911272   5.834277   2.425925   2.748071   1.447465
    23  H    4.836697   6.039725   2.817036   2.958788   2.108002
    24  H    5.256770   6.107299   2.670614   2.603126   2.077105
    25  H    5.799788   6.619367   3.300506   3.779140   2.067046
                   21         22         23         24         25
    21  H    0.000000
    22  C    2.102116   0.000000
    23  H    2.653914   1.084926   0.000000
    24  H    2.925838   1.080368   1.757971   0.000000
    25  H    2.328129   1.083236   1.766174   1.760417   0.000000
 Stoichiometry    C7H14N2O2
 Framework group  C1[X(C7H14N2O2)]
 Deg. of freedom   69
 Full point group                 C1      NOp   1
 Largest Abelian subgroup         C1      NOp   1
 Largest concise Abelian subgroup C1      NOp   1
                         Standard orientation:                         
 ---------------------------------------------------------------------
 Center     Atomic     Atomic              Coordinates (Angstroms)
 Number     Number      Type              X           Y           Z
 ---------------------------------------------------------------------
    1          6             0        3.163986   -0.942003   -0.371140
    2          1             0        3.180987   -1.008003   -1.453140
    3          1             0        3.876979   -0.181996   -0.067140
    4          1             0        3.465996   -1.887000    0.056860
    5          6             0        1.793983   -0.579017    0.160860
    6          8             0        1.356987   -1.045021    1.174860
    7          7             0        1.090974    0.303976   -0.605140
    8          1             0        1.582969    0.728981   -1.358140
    9          6             0       -0.094034    1.026964   -0.132140
   10          6             0       -0.554043    1.932960   -1.285140
   11          1             0        0.210950    2.670967   -1.513140
   12          1             0       -0.759037    1.354958   -2.180140
   13          1             0       -1.456048    2.458951   -1.001140
   14          6             0        0.221958    1.873967    1.105860
   15          1             0       -0.651048    2.432959    1.408860
   16          1             0        0.530964    1.250970    1.932860
   17          1             0        1.022951    2.568975    0.869860
   18          6             0       -1.269024    0.077952    0.171860
   19          8             0       -2.127027    0.411944    0.942860
   20          7             0       -1.346013   -1.051048   -0.562140
   21          1             0       -0.518010   -1.359040   -1.013140
   22          6             0       -2.369003   -2.036059   -0.282140
   23          1             0       -2.202998   -2.533057    0.667860
   24          1             0       -3.337008   -1.557068   -0.255140
   25          1             0       -2.364995   -2.775059   -1.074140
 ---------------------------------------------------------------------
 Rotational constants (GHZ):      1.4081341      0.8939525      0.7075618
 Isotopes: C-12,H-1,H-1,H-1,C-12,O-16,N-14,H-1,C-12,C-12,H-1,H-1,H-1,C-12,H-1,H-1
 ,H-1,C-12,O-16,N-14,H-1,C-12,H-1,H-1,H-1
 Leave Link  202 at Sun Feb 12 17:04:49 2006, MaxMem=   16777216 cpu:       0.0
 (Enter /usr/local/g98/l301.exe)
 Standard basis: 6-31G(d) (6D, 7F)
 There are   193 symmetry adapted basis functions of A   symmetry.
 Crude estimate of integral set expansion from redundant integrals=1.000.
 Integral buffers will be    262144 words long.
 Raffenetti 1 integral format.
 Two-electron integral symmetry is turned on.
   193 basis functions      364 primitive gaussians
    43 alpha electrons       43 beta electrons
       nuclear repulsion energy       679.9800298059 Hartrees.
 Leave Link  301 at Sun Feb 12 17:04:49 2006, MaxMem=   16777216 cpu:       0.0
 (Enter /usr/local/g98/l302.exe)
 One-electron integrals computed using PRISM.
 NBasis=   193 RedAO= T  NBF=   193
 NBsUse=   193 1.00D-04 NBFU=   193
 Leave Link  302 at Sun Feb 12 17:04:50 2006, MaxMem=   16777216 cpu:       0.8
 (Enter /usr/local/g98/l303.exe)
 DipDrv:  MaxL=1.
 Leave Link  303 at Sun Feb 12 17:04:51 2006, MaxMem=   16777216 cpu:       0.3
 (Enter /usr/local/g98/l401.exe)
 Projected INDO Guess.
 Leave Link  401 at Sun Feb 12 17:04:51 2006, MaxMem=   16777216 cpu:       0.7
 (Enter /usr/local/g98/l502.exe)
 IExCor=   0 DFT=F Ex=HF Corr=None ScaHFX= 1.0000
 ScaDFX=  0.0000  0.0000  0.0000  0.0000
 IRadAn=      0 IRanWt=     -1 IRanGd=            0 ICorTp=0
 Using DIIS extrapolation.
 Closed shell SCF:
 Requested convergence on RMS density matrix=1.00D-08 within  64 cycles.
 Requested convergence on MAX density matrix=1.00D-06.
 Integral symmetry usage will be decided dynamically.
 IEnd=    127088 IEndB=    127088 NGot=  16777216 MDV=  16691795
 LenX=  16691795
 Fock matrices will be formed incrementally for  20 cycles.
 Integral accuracy reduced to 1.0D-05 until final iterations.

 Cycle   1  Pass 0  IDiag 1:
 Petite list used in FoFDir.
 MinBra= 0 MaxBra= 2 Meth= 1.
 IRaf=       0 NMat=   1 IRICut=       1 DoRegI=T DoRafI=F ISym2E= 1 JSym2E=1.
 E=-0.120949131988301D+04
 DIIS: error= 2.96D-01 at cycle   1.
 T= 2870. Gap= 0.539 NK=0 IS=    1 IE=  193
          NO(<0.9)=   0  NV(>0.1)=   0  43.00e < EF 0.00e >EF  Err=1.8D-13
 RMSDP=7.09D-03 MaxDP=1.57D-01

 Cycle   2  Pass 0  IDiag 1:
 RMSU=  6.78D-03    CP:  9.18D-01
 E=-0.121173950584293D+04 Delta-E=       -2.248185959924
 DIIS: error= 3.63D-02 at cycle   2.
 Coeff: 0.219D-01-0.102D+01
 T= 2662. Gap= 0.578 NK=0 IS=    1 IE=  193
          NO(<0.9)=   0  NV(>0.1)=   0  43.00e < EF 0.00e >EF  Err=3.5D-11
 RMSDP=2.22D-03 MaxDP=8.22D-02

 Cycle   3  Pass 0  IDiag 1:
 RMSU=  2.21D-03    CP:  9.13D-01  9.85D-01
 E=-0.121181282016671D+04 Delta-E=       -0.073314323781
 DIIS: error= 2.61D-02 at cycle   3.
 Coeff: 0.236D-01-0.423D+00-0.601D+00
 T= 2325. Gap= 0.569 NK=0 IS=    1 IE=  193
          NO(<0.9)=   0  NV(>0.1)=   0  43.00e < EF 0.00e >EF  Err=0.0D+00
 RMSDP=1.17D-03 MaxDP=4.07D-02

 Cycle   4  Pass 0  IDiag 1:
 RMSU=  7.18D-04    CP:  9.09D-01  1.07D+00  6.87D-01
 E=-0.121186689867901D+04 Delta-E=       -0.054078512294
 DIIS: error= 2.22D-03 at cycle   4.
 Coeff:-0.362D-02 0.915D-01 0.860D-01-0.117D+01
 T= 1297. Gap= 0.567 NK=0 IS=    1 IE=  193
          NO(<0.9)=   0  NV(>0.1)=   0  43.00e < EF 0.00e >EF  Err=0.0D+00
 RMSDP=3.97D-04 MaxDP=8.20D-03

 Cycle   5  Pass 0  IDiag 1:
 RMSU=  1.86D-04    CP:  9.07D-01  1.10D+00  7.51D-01  1.39D+00
 E=-0.121186924055021D+04 Delta-E=       -0.002341871203
 DIIS: error= 1.20D-03 at cycle   5.
 Coeff:-0.327D-02 0.639D-01 0.865D-01-0.318D+00-0.830D+00
 T=  826. Gap= 0.569 NK=0 IS=    1 IE=  193
          NO(<0.9)=   0  NV(>0.1)=   0  43.00e < EF 0.00e >EF  Err=0.0D+00
 RMSDP=1.49D-04 MaxDP=3.93D-03

 Cycle   6  Pass 0  IDiag 1:
 RMSU=  6.64D-05    CP:  9.07D-01  1.10D+00  7.55D-01  1.56D+00  1.06D+00
 E=-0.121186961159766D+04 Delta-E=       -0.000371047455
 DIIS: error= 3.46D-04 at cycle   6.
 Coeff: 0.926D-03-0.205D-01-0.182D-01 0.178D+00 0.145D+00-0.129D+01
 RMSDP=7.54D-05 MaxDP=1.57D-03

 Cycle   7  Pass 0  IDiag 1:
 RMSU=  2.13D-05    CP:  9.07D-01  1.11D+00  7.58D-01  1.63D+00  1.26D+00
                    CP:  1.49D+00
 E=-0.121186968330045D+04 Delta-E=       -0.000071702787
 DIIS: error= 1.53D-04 at cycle   7.
 Coeff: 0.213D-03-0.440D-02-0.351D-02 0.923D-02 0.812D-01 0.412D-01
 Coeff:-0.112D+01
 RMSDP=2.29D-05 MaxDP=5.25D-04

 Cycle   8  Pass 0  IDiag 1:
 RMSU=  7.55D-06    CP:  9.07D-01  1.11D+00  7.57D-01  1.64D+00  1.30D+00
                    CP:  1.71D+00  1.38D+00
 E=-0.121186968712592D+04 Delta-E=       -0.000003825468
 DIIS: error= 7.31D-05 at cycle   8.
 Coeff:-0.153D-03 0.341D-02 0.397D-02-0.332D-01-0.189D-01 0.214D+00
 Coeff: 0.199D-01-0.119D+01
 RMSDP=9.95D-06 MaxDP=1.93D-04

 Initial convergence to 1.0D-05 achieved.  Increase integral accuracy.
 Cycle   9  Pass 1  IDiag 1:
 E=-0.121186969229355D+04 Delta-E=       -0.000005167626
 DIIS: error= 1.61D-05 at cycle   1.
 RMSDP=9.95D-06 MaxDP=1.93D-04

 Cycle  10  Pass 1  IDiag 1:
 RMSU=  2.06D-06    CP:  1.00D+00
 E=-0.121186969233307D+04 Delta-E=       -0.000000039526
 DIIS: error= 1.06D-05 at cycle   2.
 Coeff:-0.290D-01-0.971D+00
 RMSDP=6.08D-07 MaxDP=1.30D-05

 Cycle  11  Pass 1  IDiag 1:
 RMSU=  5.32D-07    CP:  1.00D+00  1.14D+00
 E=-0.121186969234477D+04 Delta-E=       -0.000000011701
 DIIS: error= 4.97D-06 at cycle   3.
 Coeff: 0.168D+00-0.202D+00-0.966D+00
 RMSDP=4.18D-07 MaxDP=1.02D-05

 Cycle  12  Pass 1  IDiag 1:
 RMSU=  2.85D-07    CP:  1.00D+00  1.26D+00  1.36D+00
 E=-0.121186969235072D+04 Delta-E=       -0.000000005946
 DIIS: error= 2.21D-06 at cycle   4.
 Coeff: 0.118D-01 0.201D+00-0.227D-01-0.119D+01
 RMSDP=2.49D-07 MaxDP=5.31D-06

 Cycle  13  Pass 1  IDiag 1:
 RMSU=  7.25D-08    CP:  1.00D+00  1.30D+00  1.72D+00  1.38D+00
 E=-0.121186969235262D+04 Delta-E=       -0.000000001905
 DIIS: error= 4.15D-07 at cycle   5.
 Coeff:-0.130D-01 0.609D-01 0.907D-01-0.247D+00-0.892D+00
 RMSDP=5.94D-08 MaxDP=1.22D-06

 Cycle  14  Pass 1  IDiag 1:
 RMSU=  2.84D-08    CP:  1.00D+00  1.31D+00  1.78D+00  1.50D+00  1.19D+00
 E=-0.121186969235289D+04 Delta-E=       -0.000000000268
 DIIS: error= 1.20D-07 at cycle   6.
 Coeff: 0.184D-02-0.425D-01-0.206D-01 0.216D+00 0.221D+00-0.138D+01
 RMSDP=2.89D-08 MaxDP=7.03D-07

 Cycle  15  Pass 1  IDiag 1:
 RMSU=  7.98D-09    CP:  1.00D+00  1.31D+00  1.80D+00  1.54D+00  1.44D+00
                    CP:  1.51D+00
 E=-0.121186969235302D+04 Delta-E=       -0.000000000127
 DIIS: error= 4.32D-08 at cycle   7.
 Coeff: 0.112D-02-0.115D-01-0.859D-02 0.570D-01 0.967D-01-0.255D+00
 Coeff:-0.879D+00
 RMSDP=5.62D-09 MaxDP=1.70D-07

 SCF Done:  E(RHF) =  -531.889662547     A.U. after   15 cycles
             Convg  =    0.5623D-08             -V/T =  2.0014
             S**2   =   0.0000
 KE= 5.311415990590D+02 PE=-2.606130724562D+03 EE= 8.631194331502D+02
 Leave Link  502 at Sun Feb 12 17:09:25 2006, MaxMem=   16777216 cpu:     269.7
 (Enter /usr/local/g98/l801.exe)
 Range of M.O.s used for correlation:     1   193
 NBasis=   193 NAE=    43 NBE=    43 NFC=     0 NFV=     0
 NROrb=    193 NOA=    43 NOB=    43 NVA=   150 NVB=   150
 Leave Link  801 at Sun Feb 12 17:09:25 2006, MaxMem=   16777216 cpu:       0.0
 (Enter /usr/local/g98/l1101.exe)
 Using compressed storage.
 Will process  25 atoms per pass.
 Leave Link 1101 at Sun Feb 12 17:09:26 2006, MaxMem=   16777216 cpu:       1.1
 (Enter /usr/local/g98/l1102.exe)
 Use density number 0.
 Leave Link 1102 at Sun Feb 12 17:09:26 2006, MaxMem=   16777216 cpu:       0.3
 (Enter /usr/local/g98/l1110.exe)
 Forming Gx(P) for the SCF density.
 Integral derivatives from FoFDir, PRISM(SPDF).
 Do as many integral derivatives as possible in FoFDir.
 G2DrvN: MDV=  16777216.
 G2DrvN: will do   25 atoms at a time, making    1 passes doing MaxLOS=2.
 Symmetry not used in FoFDir.
 MinBra= 0 MaxBra= 2 Meth= 1.
 IRaf=       0 NMat=   1 IRICut=       1 DoRegI=T DoRafI=F ISym2E= 0 JSym2E=0.
 FoFDir used for L=0 through L=2.
 Leave Link 1110 at Sun Feb 12 17:13:31 2006, MaxMem=   16777216 cpu:     243.0
 (Enter /usr/local/g98/l1002.exe)
 Minotr:  Closed-shell wavefunction.
          Direct CPHF calculation.
          Solving linear equations simultaneously.
          Requested convergence is 1.0D-06 RMS, and 1.0D-05 maximum.
          Secondary convergence is 1.0D-12 RMS, and 1.0D-12 maximum.
          Differentiating once with respect to electric field.
                with respect to dipole field.
          Differentiating once with respect to nuclear coordinates.
          NewPWx=T KeepS1=F KeepF1=F KeepIn=F MapXYZ=F.
          MDV=      16777216
          Using IRadAn=       2.
 Integrals replicated using symmetry in FoFDir.
 MinBra= 0 MaxBra= 2 Meth= 1.
 IRaf=       0 NMat=  78 IRICut=      78 DoRegI=T DoRafI=T ISym2E= 2 JSym2E=2.
          There are  78 degrees of freedom in the 1st order CPHF.
  75 vectors were produced by pass  0.
 AX will form  75 AO Fock derivatives at one time.
  75 vectors were produced by pass  1.
  75 vectors were produced by pass  2.
  75 vectors were produced by pass  3.
  75 vectors were produced by pass  4.
  13 vectors were produced by pass  5.
   3 vectors were produced by pass  6.
 Inv2:  IOpt= 1 Iter= 1 AM= 3.79D-15 Conv= 1.00D-12.
 Inverted reduced A of dimension 391 with in-core refinement.
 Leave Link 1002 at Sun Feb 12 17:33:24 2006, MaxMem=   16777216 cpu:    1190.1
 (Enter /usr/local/g98/l601.exe)
 Copying SCF densities to generalized density rwf, ISCF=0 IROHF=0.

 **********************************************************************

            Population analysis using the SCF density.

 **********************************************************************

 Alpha  occ. eigenvalues --  -20.53568 -20.51342 -15.59528 -15.57218 -11.35898
 Alpha  occ. eigenvalues --  -11.33507 -11.28909 -11.24683 -11.24299 -11.23287
 Alpha  occ. eigenvalues --  -11.20734  -1.40462  -1.38263  -1.25262  -1.21825
 Alpha  occ. eigenvalues --   -1.07671  -1.00404  -0.95271  -0.94745  -0.84874
 Alpha  occ. eigenvalues --   -0.80717  -0.77083  -0.71286  -0.69083  -0.65444
 Alpha  occ. eigenvalues --   -0.62843  -0.62379  -0.62037  -0.59990  -0.59458
 Alpha  occ. eigenvalues --   -0.58297  -0.57213  -0.55854  -0.54248  -0.54069
 Alpha  occ. eigenvalues --   -0.51999  -0.51620  -0.51071  -0.49114  -0.42967
 Alpha  occ. eigenvalues --   -0.42160  -0.38964  -0.37865
 Alpha virt. eigenvalues --    0.18911   0.20091   0.20981   0.24981   0.25292
 Alpha virt. eigenvalues --    0.27923   0.28841   0.29083   0.30032   0.30238
 Alpha virt. eigenvalues --    0.32293   0.32676   0.33018   0.34438   0.35762
 Alpha virt. eigenvalues --    0.36095   0.38084   0.38638   0.40224   0.42906
 Alpha virt. eigenvalues --    0.44715   0.47641   0.51622   0.53977   0.58003
 Alpha virt. eigenvalues --    0.64072   0.69767   0.70929   0.72967   0.74242
 Alpha virt. eigenvalues --    0.75420   0.76400   0.76933   0.79540   0.81593
 Alpha virt. eigenvalues --    0.83175   0.86654   0.88094   0.90363   0.93334
 Alpha virt. eigenvalues --    0.94136   0.96691   0.97837   0.98716   1.01647
 Alpha virt. eigenvalues --    1.02101   1.02669   1.03541   1.05574   1.09491
 Alpha virt. eigenvalues --    1.11329   1.12707   1.13237   1.14365   1.15458
 Alpha virt. eigenvalues --    1.15828   1.17817   1.18160   1.18443   1.19950
 Alpha virt. eigenvalues --    1.21253   1.21654   1.22980   1.24004   1.25144
 Alpha virt. eigenvalues --    1.26127   1.27317   1.28490   1.32092   1.36865
 Alpha virt. eigenvalues --    1.38723   1.39312   1.42325   1.46263   1.51417
 Alpha virt. eigenvalues --    1.55836   1.58808   1.59383   1.60668   1.63270
 Alpha virt. eigenvalues --    1.67715   1.71711   1.73854   1.76095   1.79198
 Alpha virt. eigenvalues --    1.90713   1.93300   1.96623   1.99147   2.01754
 Alpha virt. eigenvalues --    2.05394   2.08827   2.09693   2.11934   2.14141
 Alpha virt. eigenvalues --    2.15425   2.17632   2.19403   2.20811   2.21923
 Alpha virt. eigenvalues --    2.23576   2.26183   2.30330   2.30761   2.35028
 Alpha virt. eigenvalues --    2.37615   2.38571   2.40304   2.41224   2.44215
 Alpha virt. eigenvalues --    2.50402   2.53678   2.56074   2.57136   2.58087
 Alpha virt. eigenvalues --    2.59863   2.62068   2.64940   2.69162   2.70566
 Alpha virt. eigenvalues --    2.73285   2.74265   2.78308   2.79319   2.83617
 Alpha virt. eigenvalues --    2.88172   2.94474   2.97637   3.02105   3.06327
 Alpha virt. eigenvalues --    3.09846   3.10605   3.13713   3.27069   3.34303
 Alpha virt. eigenvalues --    3.38618   3.41566   3.53718   3.60042   4.39716
 Alpha virt. eigenvalues --    4.45182   4.48683   4.59928   4.65877   4.66851
 Alpha virt. eigenvalues --    4.74076   4.77364   4.86174   4.99021   5.19728
          Condensed to atoms (all electrons):
              1          2          3          4          5          6
  1  C    5.269785   0.376415   0.375553   0.384055   0.372861  -0.070061
  2  H    0.376415   0.521202  -0.024618  -0.020931  -0.037010   0.001960
  3  H    0.375553  -0.024618   0.490987  -0.017018  -0.027121   0.000298
  4  H    0.384055  -0.020931  -0.017018   0.459822  -0.031936   0.003253
  5  C    0.372861  -0.037010  -0.027121  -0.031936   4.165316   0.606562
  6  O   -0.070061   0.001960   0.000298   0.003253   0.606562   8.142627
  7  N   -0.122461   0.005114   0.000789   0.004214   0.257907  -0.106324
  8  H    0.000212   0.000245   0.000073   0.000058  -0.021037   0.002669
  9  C    0.003565   0.000184  -0.000245  -0.000079  -0.028378   0.008507
 10  C   -0.000116  -0.000018   0.000003   0.000002   0.003575   0.000175
 11  H   -0.000007  -0.000003   0.000000   0.000000  -0.000216  -0.000001
 12  H   -0.000010   0.000002   0.000000   0.000000  -0.000130   0.000000
 13  H    0.000002   0.000000   0.000000   0.000000  -0.000008   0.000003
 14  C   -0.000465   0.000011   0.000103  -0.000001  -0.003590  -0.006247
 15  H    0.000006   0.000000  -0.000001   0.000000   0.000194   0.000065
 16  H    0.000183  -0.000003  -0.000026   0.000001   0.002479   0.005473
 17  H   -0.000045  -0.000003   0.000012   0.000001  -0.000605   0.000003
 18  C    0.000014  -0.000028   0.000001   0.000004  -0.003738   0.005968
 19  O   -0.000001   0.000000   0.000000   0.000000  -0.000123  -0.000271
 20  N   -0.000037   0.000009  -0.000001   0.000006   0.003043  -0.002898
 21  H   -0.000116   0.000028   0.000003  -0.000005   0.001925  -0.000261
 22  C    0.000000   0.000000   0.000000   0.000000  -0.000105  -0.000087
 23  H    0.000001   0.000000   0.000000   0.000000  -0.000039   0.000204
 24  H    0.000000   0.000000   0.000000   0.000000   0.000003   0.000000
 25  H    0.000000   0.000000   0.000000   0.000000   0.000007  -0.000005
              7          8          9         10         11         12
  1  C   -0.122461   0.000212   0.003565  -0.000116  -0.000007  -0.000010
  2  H    0.005114   0.000245   0.000184  -0.000018  -0.000003   0.000002
  3  H    0.000789   0.000073  -0.000245   0.000003   0.000000   0.000000
  4  H    0.004214   0.000058  -0.000079   0.000002   0.000000   0.000000
  5  C    0.257907  -0.021037  -0.028378   0.003575  -0.000216  -0.000130
  6  O   -0.106324   0.002669   0.008507   0.000175  -0.000001   0.000000
  7  N    7.503620   0.324752   0.150959  -0.062636  -0.003387  -0.000841
  8  H    0.324752   0.332993  -0.026275  -0.005240   0.003094   0.000491
  9  C    0.150959  -0.026275   5.058982   0.365456  -0.036797  -0.035298
 10  C   -0.062636  -0.005240   0.365456   5.165031   0.385434   0.387311
 11  H   -0.003387   0.003094  -0.036797   0.385434   0.531594  -0.027381
 12  H   -0.000841   0.000491  -0.035298   0.387311  -0.027381   0.513451
 13  H    0.004307   0.000070  -0.034290   0.393234  -0.021482  -0.020270
 14  C   -0.070266   0.001534   0.376676  -0.064719  -0.005080   0.005026
 15  H    0.004356  -0.000099  -0.028926  -0.002872   0.000183  -0.000053
 16  H   -0.004293  -0.000183  -0.027510   0.003951  -0.000053  -0.000094
 17  H   -0.000997   0.000687  -0.043671  -0.004925   0.002329  -0.000066
 18  C   -0.055068   0.003267   0.388900  -0.057779   0.005492  -0.006939
 19  O    0.002127  -0.000052  -0.077151  -0.001812  -0.000074  -0.000027
 20  N   -0.000912  -0.000343  -0.121500   0.000400  -0.000104   0.003838
 21  H    0.006860  -0.000086  -0.004167   0.000446  -0.000025   0.000236
 22  C   -0.000065   0.000013   0.004634  -0.000238   0.000004  -0.000058
 23  H   -0.000021   0.000000  -0.000114  -0.000004   0.000000   0.000004
 24  H   -0.000018   0.000000   0.000078   0.000010   0.000000  -0.000018
 25  H   -0.000010   0.000000   0.000027   0.000001   0.000000  -0.000005
             13         14         15         16         17         18
  1  C    0.000002  -0.000465   0.000006   0.000183  -0.000045   0.000014
  2  H    0.000000   0.000011   0.000000  -0.000003  -0.000003  -0.000028
  3  H    0.000000   0.000103  -0.000001  -0.000026   0.000012   0.000001
  4  H    0.000000  -0.000001   0.000000   0.000001   0.000001   0.000004
  5  C   -0.000008  -0.003590   0.000194   0.002479  -0.000605  -0.003738
  6  O    0.000003  -0.006247   0.000065   0.005473   0.000003   0.005968
  7  N    0.004307  -0.070266   0.004356  -0.004293  -0.000997  -0.055068
  8  H    0.000070   0.001534  -0.000099  -0.000183   0.000687   0.003267
  9  C   -0.034290   0.376676  -0.028926  -0.027510  -0.043671   0.388900
 10  C    0.393234  -0.064719  -0.002872   0.003951  -0.004925  -0.057779
 11  H   -0.021482  -0.005080   0.000183  -0.000053   0.002329   0.005492
 12  H   -0.020270   0.005026  -0.000053  -0.000094  -0.000066  -0.006939
 13  H    0.470457  -0.002303   0.001496  -0.000019  -0.000021  -0.003136
 14  C   -0.002303   5.136841   0.386779   0.392266   0.385307  -0.065065
 15  H    0.001496   0.386779   0.485817  -0.019031  -0.025745  -0.004850
 16  H   -0.000019   0.392266  -0.019031   0.462874  -0.025013  -0.004351
 17  H   -0.000021   0.385307  -0.025745  -0.025013   0.562363   0.006054
 18  C   -0.003136  -0.065065  -0.004850  -0.004351   0.006054   4.148638
 19  O    0.003184   0.002234   0.004524   0.000691   0.000224   0.595882
 20  N    0.000187   0.003099   0.000094   0.000057  -0.000041   0.293928
 21  H   -0.000011   0.000120  -0.000020  -0.000007  -0.000008  -0.019593
 22  C   -0.000011  -0.000095  -0.000006  -0.000010   0.000002  -0.033089
 23  H   -0.000001   0.000020  -0.000001  -0.000001   0.000000  -0.002983
 24  H    0.000007  -0.000014   0.000001   0.000000   0.000000  -0.003493
 25  H    0.000000   0.000000   0.000000   0.000000   0.000000   0.004480
             19         20         21         22         23         24
  1  C   -0.000001  -0.000037  -0.000116   0.000000   0.000001   0.000000
  2  H    0.000000   0.000009   0.000028   0.000000   0.000000   0.000000
  3  H    0.000000  -0.000001   0.000003   0.000000   0.000000   0.000000
  4  H    0.000000   0.000006  -0.000005   0.000000   0.000000   0.000000
  5  C   -0.000123   0.003043   0.001925  -0.000105  -0.000039   0.000003
  6  O   -0.000271  -0.002898  -0.000261  -0.000087   0.000204   0.000000
  7  N    0.002127  -0.000912   0.006860  -0.000065  -0.000021  -0.000018
  8  H   -0.000052  -0.000343  -0.000086   0.000013   0.000000   0.000000
  9  C   -0.077151  -0.121500  -0.004167   0.004634  -0.000114   0.000078
 10  C   -0.001812   0.000400   0.000446  -0.000238  -0.000004   0.000010
 11  H   -0.000074  -0.000104  -0.000025   0.000004   0.000000   0.000000
 12  H   -0.000027   0.003838   0.000236  -0.000058   0.000004  -0.000018
 13  H    0.003184   0.000187  -0.000011  -0.000011  -0.000001   0.000007
 14  C    0.002234   0.003099   0.000120  -0.000095   0.000020  -0.000014
 15  H    0.004524   0.000094  -0.000020  -0.000006  -0.000001   0.000001
 16  H    0.000691   0.000057  -0.000007  -0.000010  -0.000001   0.000000
 17  H    0.000224  -0.000041  -0.000008   0.000002   0.000000   0.000000
 18  C    0.595882   0.293928  -0.019593  -0.033089  -0.002983  -0.003493
 19  O    8.185072  -0.102464   0.002625   0.005927   0.001349   0.004209
 20  N   -0.102464   7.299366   0.324192   0.211970  -0.047828  -0.038861
 21  H    0.002625   0.324192   0.318434  -0.024063   0.000997   0.002679
 22  C    0.005927   0.211970  -0.024063   4.905579   0.405886   0.402701
 23  H    0.001349  -0.047828   0.000997   0.405886   0.524095  -0.032032
 24  H    0.004209  -0.038861   0.002679   0.402701  -0.032032   0.490322
 25  H    0.000371  -0.039510  -0.004112   0.397584  -0.032732  -0.025333
             25
  1  C    0.000000
  2  H    0.000000
  3  H    0.000000
  4  H    0.000000
  5  C    0.000007
  6  O   -0.000005
  7  N   -0.000010
  8  H    0.000000
  9  C    0.000027
 10  C    0.000001
 11  H    0.000000
 12  H   -0.000005
 13  H    0.000000
 14  C    0.000000
 15  H    0.000000
 16  H    0.000000
 17  H    0.000000
 18  C    0.004480
 19  O    0.000371
 20  N   -0.039510
 21  H   -0.004112
 22  C    0.397584
 23  H   -0.032732
 24  H   -0.025333
 25  H    0.537259
 Total atomic charges:
              1
  1  C   -0.589332
  2  H    0.177442
  3  H    0.201208
  4  H    0.218554
  5  C    0.740164
  6  O   -0.591612
  7  N   -0.837704
  8  H    0.383157
  9  C    0.106430
 10  C   -0.504671
 11  H    0.166479
 12  H    0.180832
 13  H    0.208606
 14  C   -0.472171
 15  H    0.198090
 16  H    0.212618
 17  H    0.144159
 18  C    0.807485
 19  O   -0.626443
 20  N   -0.785689
 21  H    0.393928
 22  C   -0.276471
 23  H    0.183201
 24  H    0.199759
 25  H    0.161980
 Sum of Mulliken charges=   0.00000
 Atomic charges with hydrogens summed into heavy atoms:
              1
  1  C    0.007872
  2  H    0.000000
  3  H    0.000000
  4  H    0.000000
  5  C    0.740164
  6  O   -0.591612
  7  N   -0.454547
  8  H    0.000000
  9  C    0.106430
 10  C    0.051247
 11  H    0.000000
 12  H    0.000000
 13  H    0.000000
 14  C    0.082696
 15  H    0.000000
 16  H    0.000000
 17  H    0.000000
 18  C    0.807485
 19  O   -0.626443
 20  N   -0.391761
 21  H    0.000000
 22  C    0.268468
 23  H    0.000000
 24  H    0.000000
 25  H    0.000000
 Sum of Mulliken charges=   0.00000
 Electronic spatial extent (au):  <R**2>=  1858.9259
 Charge=     0.0000 electrons
 Dipole moment (Debye):
    X=     3.5516    Y=     0.3426    Z=    -4.9443  Tot=     6.0973
 Quadrupole moment (Debye-Ang):
   XX=   -65.6676   YY=   -62.8019   ZZ=   -70.5695
   XY=     4.7151   XZ=    -0.4271   YZ=     1.8830
 Octapole moment (Debye-Ang**2):
  XXX=    31.0809  YYY=    -8.3789  ZZZ=    -4.0161  XYY=    -7.2200
  XXY=   -12.0561  XXZ=   -15.2314  XZZ=     3.8424  YZZ=     1.8513
  YYZ=    -5.9660  XYZ=     4.3383
 Hexadecapole moment (Debye-Ang**3):
 XXXX= -1239.1953 YYYY=  -774.8528 ZZZZ=  -350.2754 XXXY=    13.1183
 XXXZ=    14.6907 YYYX=     3.3972 YYYZ=     4.8388 ZZZX=   -11.1501
 ZZZY=     2.9929 XXYY=  -321.9893 XXZZ=  -288.3689 YYZZ=  -190.1777
 XXYZ=    -3.6394 YYXZ=    -4.6382 ZZXY=     9.2475
 N-N= 6.799800298059D+02 E-N=-2.606130724500D+03  KE= 5.311415990590D+02
  Exact polarizability:  86.637  -0.634  84.664  -4.137   0.057  76.332
 Approx polarizability:  72.605  -1.235  72.265  -6.060  -0.697  75.503
 Leave Link  601 at Sun Feb 12 17:33:25 2006, MaxMem=   16777216 cpu:       0.5
 (Enter /usr/local/g98/l701.exe)
 Compute integral second derivatives.
 ... and contract with generalized density number  0.
 Leave Link  701 at Sun Feb 12 17:33:26 2006, MaxMem=   16777216 cpu:       1.5
 (Enter /usr/local/g98/l702.exe)
 L702 exits ... SP integral derivatives will be done elsewhere.
 Leave Link  702 at Sun Feb 12 17:33:26 2006, MaxMem=   16777216 cpu:       0.0
 (Enter /usr/local/g98/l703.exe)
 Compute integral second derivatives.
 Integral derivatives from FoFDir, PRISM(SPDF).
 Symmetry not used in FoFDir.
 MinBra= 0 MaxBra= 2 Meth= 1.
 IRaf=       0 NMat=   1 IRICut=       1 DoRegI=T DoRafI=F ISym2E= 0 JSym2E=0.
 Leave Link  703 at Sun Feb 12 17:43:41 2006, MaxMem=   16777216 cpu:     611.9
 (Enter /usr/local/g98/l716.exe)
 Dipole        = 1.39729074D+00 1.34781194D-01-1.94520302D+00
 Polarizability= 8.66369039D+01-6.33694864D-01 8.46640359D+01
                -4.13725308D+00 5.73753850D-02 7.63323399D+01
 HyperPolar    = 6.39835126D+00 2.58887305D+01 3.95901674D+01
                 2.27797329D+01-2.08933248D+00-2.53230843D+01
                 2.68029774D+01 3.17043882D+01-2.59477093D+01
                -5.79432110D+01
 ***** Axes restored to original set *****
 -------------------------------------------------------------------
 Center     Atomic                   Forces (Hartrees/Bohr)
 Number     Number              X              Y              Z
 -------------------------------------------------------------------
    1          6           0.000145689   -0.000609031    0.000302138
    2          1          -0.000100157    0.000000556   -0.000183009
    3          1           0.000168783    0.000206242    0.000118865
    4          1           0.000045468    0.000171785   -0.000115426
    5          6          -0.000653912    0.000553821   -0.000313454
    6          8           0.000173963    0.000191546   -0.000393328
    7          7          -0.000176800   -0.000937123    0.001163724
    8          1           0.000406215    0.000353166   -0.000577521
    9          6          -0.000281747    0.000264788    0.000477634
   10          6           0.000474027   -0.000005062   -0.000175190
   11          1          -0.000356957   -0.000258409    0.000036910
   12          1          -0.000004295    0.000212354    0.000212353
   13          1          -0.000022059   -0.000014427   -0.000045569
   14          6           0.000370971   -0.000337514   -0.000431936
   15          1          -0.000168078    0.000159683    0.000076573
   16          1          -0.000072205   -0.000009932   -0.000013534
   17          1          -0.000153674    0.000002649    0.000030642
   18          6          -0.000009645    0.000579766    0.000258579
   19          8           0.000345566   -0.000103577   -0.000275217
   20          7          -0.000365888   -0.000401985    0.000038680
   21          1           0.000216522   -0.000036066   -0.000117871
   22          6          -0.000411685   -0.000262573   -0.000518655
   23          1          -0.000044401    0.000111920   -0.000074849
   24          1           0.000410376   -0.000186938    0.000111191
   25          1           0.000063924    0.000354360    0.000408271
 -------------------------------------------------------------------
 Cartesian Forces:  Max     0.001163724 RMS     0.000327723
 Leave Link  716 at Sun Feb 12 17:43:41 2006, MaxMem=   16777216 cpu:       0.1
 (Enter /usr/local/g98/l103.exe)

 GradGradGradGradGradGradGradGradGradGradGradGradGradGradGradGradGradGrad
 Berny optimization.
 Internal  Forces:  Max     0.000788901 RMS     0.000174542
 Search for a local minimum.
 Step number   1 out of a maximum of 126
 All quantities printed in internal units (Hartrees-Bohrs-Radians)
 Second derivative matrix not updated -- analytic derivatives used.
     Eigenvalues ---    0.00040   0.00077   0.00222   0.00300   0.00418
     Eigenvalues ---    0.00469   0.00605   0.01420   0.01777   0.02103
     Eigenvalues ---    0.04738   0.05096   0.05444   0.05476   0.05532
     Eigenvalues ---    0.05669   0.05935   0.06476   0.06588   0.06839
     Eigenvalues ---    0.07299   0.07416   0.07823   0.13612   0.14316
     Eigenvalues ---    0.14634   0.14794   0.15015   0.15127   0.15446
     Eigenvalues ---    0.15565   0.16229   0.16329   0.17070   0.17905
     Eigenvalues ---    0.19636   0.20703   0.20892   0.21231   0.23172
     Eigenvalues ---    0.23798   0.25621   0.26230   0.27423   0.29768
     Eigenvalues ---    0.31496   0.32789   0.36679   0.36856   0.37067
     Eigenvalues ---    0.37167   0.37282   0.37640   0.37728   0.37953
     Eigenvalues ---    0.38132   0.38711   0.38862   0.39001   0.39124
     Eigenvalues ---    0.39432   0.41122   0.43218   0.48980   0.52265
     Eigenvalues ---    0.53413   0.55113   0.99448   1.010271000.00000
     Eigenvalues --- 1000.000001000.000001000.000001000.000001000.00000
     Eigenvalues --- 1000.000001000.000001000.000001000.000001000.00000
     Eigenvalues --- 1000.000001000.000001000.000001000.000001000.00000
     Eigenvalues --- 1000.000001000.000001000.000001000.000001000.00000
     Eigenvalues --- 1000.000001000.000001000.000001000.000001000.00000
     Eigenvalues --- 1000.000001000.000001000.000001000.000001000.00000
     Eigenvalues --- 1000.000001000.000001000.000001000.000001000.00000
     Eigenvalues --- 1000.000001000.000001000.000001000.000001000.00000
     Eigenvalues --- 1000.000001000.000001000.000001000.000001000.00000
     Eigenvalues --- 1000.00000
 RFO step:  Lambda=-9.18683332D-06.
 Linear search not attempted -- first point.
 Iteration  1 RMS(Cart)=  0.00045357 RMS(Int)=  0.00000030
 Iteration  2 RMS(Cart)=  0.00000036 RMS(Int)=  0.00000010
 Variable       Old X    -DE/DX   Delta X   Delta X   Delta X     New X
                                 (Linear)    (Quad)   (Total)
    R1        2.04874   0.00018   0.00000   0.00052   0.00052   2.04926
    R2        2.05136   0.00029   0.00000   0.00078   0.00078   2.05214
    R3        2.04179  -0.00018   0.00000  -0.00055  -0.00055   2.04124
    R4        2.86073   0.00025   0.00000   0.00086   0.00086   2.86159
    R5        2.26477  -0.00047   0.00000  -0.00023  -0.00023   2.26454
    R6        2.57770  -0.00077   0.00000  -0.00173  -0.00173   2.57597
    R7        1.87997   0.00079   0.00000   0.00152   0.00152   1.88148
    R8        2.77132   0.00004   0.00000   0.00051   0.00051   2.77184
    R9        2.90419  -0.00009   0.00000  -0.00030  -0.00030   2.90388
   R10        2.89684  -0.00038   0.00000  -0.00141  -0.00141   2.89542
   R11        2.91143  -0.00022   0.00000  -0.00079  -0.00079   2.91064
   R12        2.05438  -0.00043   0.00000  -0.00118  -0.00118   2.05319
   R13        2.05027  -0.00029   0.00000  -0.00074  -0.00074   2.04953
   R14        2.04487   0.00000   0.00000   0.00008   0.00008   2.04494
   R15        2.04092   0.00024   0.00000   0.00069   0.00069   2.04161
   R16        2.04190  -0.00003   0.00000  -0.00008  -0.00008   2.04182
   R17        2.05305  -0.00012   0.00000  -0.00034  -0.00034   2.05271
   R18        2.26937  -0.00045   0.00000  -0.00048  -0.00048   2.26889
   R19        2.54891   0.00044   0.00000   0.00089   0.00089   2.54980
   R20        1.87440   0.00025   0.00000   0.00045   0.00045   1.87485
   R21        2.73531  -0.00004   0.00000  -0.00008  -0.00008   2.73523
   R22        2.05021  -0.00012   0.00000  -0.00023  -0.00023   2.04998
   R23        2.04160  -0.00045   0.00000  -0.00113  -0.00113   2.04047
   R24        2.04702  -0.00054   0.00000  -0.00148  -0.00148   2.04554
    A1        1.88790   0.00008   0.00000   0.00022   0.00022   1.88812
    A2        1.91528   0.00000   0.00000   0.00015   0.00015   1.91544
    A3        1.96007  -0.00017   0.00000  -0.00091  -0.00091   1.95917
    A4        1.89422  -0.00004   0.00000  -0.00004  -0.00004   1.89418
    A5        1.90511  -0.00005   0.00000  -0.00040  -0.00040   1.90470
    A6        1.90019   0.00019   0.00000   0.00098   0.00098   1.90116
    A7        2.13422  -0.00014   0.00000  -0.00078  -0.00078   2.13344
    A8        2.00897   0.00029   0.00000   0.00099   0.00099   2.00995
    A9        2.13993  -0.00015   0.00000  -0.00020  -0.00020   2.13973
   A10        2.03389  -0.00006   0.00000  -0.00021  -0.00021   2.03368
   A11        2.15851   0.00011   0.00000   0.00038   0.00038   2.15889
   A12        2.01876  -0.00005   0.00000  -0.00051  -0.00051   2.01825
   A13        1.86557  -0.00001   0.00000  -0.00037  -0.00037   1.86519
   A14        1.94584   0.00000   0.00000  -0.00013  -0.00013   1.94571
   A15        1.95651  -0.00003   0.00000  -0.00036  -0.00036   1.95615
   A16        1.91970   0.00000   0.00000   0.00026   0.00026   1.91996
   A17        1.85760   0.00000   0.00000   0.00001   0.00001   1.85761
   A18        1.91580   0.00004   0.00000   0.00059   0.00059   1.91639
   A19        1.92508   0.00011   0.00000   0.00080   0.00080   1.92589
   A20        1.94055   0.00008   0.00000   0.00045   0.00045   1.94099
   A21        1.91682   0.00000   0.00000  -0.00011  -0.00011   1.91671
   A22        1.89822  -0.00007   0.00000  -0.00005  -0.00005   1.89816
   A23        1.88770  -0.00005   0.00000  -0.00026  -0.00026   1.88744
   A24        1.89438  -0.00008   0.00000  -0.00087  -0.00087   1.89350
   A25        1.92403   0.00003   0.00000   0.00003   0.00003   1.92406
   A26        1.93744  -0.00004   0.00000   0.00008   0.00008   1.93752
   A27        1.90711   0.00006   0.00000   0.00052   0.00052   1.90763
   A28        1.89110  -0.00001   0.00000  -0.00042  -0.00042   1.89068
   A29        1.90265  -0.00007   0.00000  -0.00091  -0.00091   1.90174
   A30        1.90102   0.00004   0.00000   0.00069   0.00069   1.90171
   A31        2.09469  -0.00011   0.00000  -0.00026  -0.00026   2.09443
   A32        2.03951   0.00015   0.00000   0.00055   0.00055   2.04006
   A33        2.14288  -0.00004   0.00000  -0.00025  -0.00025   2.14263
   A34        2.04844  -0.00008   0.00000  -0.00037  -0.00037   2.04807
   A35        2.09980   0.00010   0.00000   0.00030   0.00030   2.10010
   A36        2.05627  -0.00001   0.00000   0.00018   0.00018   2.05645
   A37        1.95302  -0.00005   0.00000  -0.00040  -0.00040   1.95261
   A38        1.91385   0.00002   0.00000   0.00008   0.00008   1.91393
   A39        1.89674  -0.00002   0.00000  -0.00002  -0.00002   1.89672
   A40        1.89475  -0.00006   0.00000  -0.00087  -0.00087   1.89388
   A41        1.90406   0.00003   0.00000   0.00017   0.00017   1.90423
   A42        1.90081   0.00008   0.00000   0.00109   0.00109   1.90190
    D1        2.49388   0.00002   0.00000   0.00072   0.00072   2.49460
    D2       -0.63599   0.00002   0.00000   0.00063   0.00063  -0.63536
    D3       -1.69576  -0.00002   0.00000   0.00016   0.00016  -1.69560
    D4        1.45756  -0.00003   0.00000   0.00006   0.00006   1.45762
    D5        0.36920   0.00001   0.00000   0.00045   0.00045   0.36965
    D6       -2.76066   0.00000   0.00000   0.00035   0.00035  -2.76031
    D7       -0.15329  -0.00001   0.00000  -0.00075  -0.00075  -0.15404
    D8       -2.87807   0.00000   0.00000   0.00030   0.00030  -2.87776
    D9        3.00008  -0.00001   0.00000  -0.00084  -0.00085   2.99923
   D10        0.27530   0.00000   0.00000   0.00021   0.00021   0.27551
   D11        3.11857   0.00000   0.00000  -0.00036  -0.00036   3.11821
   D12        1.02014   0.00000   0.00000  -0.00036  -0.00036   1.01978
   D13       -1.13558  -0.00003   0.00000  -0.00077  -0.00077  -1.13635
   D14        0.39053   0.00001   0.00000   0.00063   0.00063   0.39115
   D15       -1.70790   0.00002   0.00000   0.00062   0.00062  -1.70728
   D16        2.41956  -0.00001   0.00000   0.00022   0.00022   2.41978
   D17       -1.10589  -0.00002   0.00000  -0.00071  -0.00071  -1.10660
   D18        1.00139   0.00001   0.00000   0.00006   0.00006   1.00145
   D19        3.09836  -0.00003   0.00000  -0.00082  -0.00082   3.09754
   D20        1.00920  -0.00003   0.00000  -0.00094  -0.00094   1.00826
   D21        3.11648   0.00001   0.00000  -0.00018  -0.00018   3.11630
   D22       -1.06974  -0.00003   0.00000  -0.00105  -0.00105  -1.07079
   D23        3.08351   0.00002   0.00000  -0.00010  -0.00010   3.08341
   D24       -1.09240   0.00005   0.00000   0.00067   0.00067  -1.09173
   D25        1.00457   0.00001   0.00000  -0.00021  -0.00021   1.00437
   D26        3.09505  -0.00001   0.00000  -0.00001  -0.00001   3.09504
   D27       -1.09253  -0.00003   0.00000  -0.00046  -0.00046  -1.09300
   D28        1.00441   0.00003   0.00000   0.00077   0.00077   1.00519
   D29        1.02878   0.00001   0.00000   0.00037   0.00037   1.02915
   D30        3.12438  -0.00002   0.00000  -0.00009  -0.00009   3.12430
   D31       -1.06186   0.00004   0.00000   0.00115   0.00115  -1.06071
   D32       -1.00947  -0.00001   0.00000  -0.00014  -0.00014  -1.00961
   D33        1.08614  -0.00004   0.00000  -0.00059  -0.00060   1.08554
   D34       -3.10011   0.00003   0.00000   0.00064   0.00064  -3.09946
   D35        2.72391   0.00000   0.00000   0.00010   0.00010   2.72402
   D36       -0.53286   0.00002   0.00000   0.00042   0.00042  -0.53244
   D37       -1.52544  -0.00002   0.00000  -0.00053  -0.00053  -1.52597
   D38        1.50097   0.00000   0.00000  -0.00021  -0.00021   1.50076
   D39        0.55142  -0.00001   0.00000   0.00010   0.00010   0.55152
   D40       -2.70535   0.00001   0.00000   0.00041   0.00041  -2.70494
   D41        0.35552  -0.00002   0.00000  -0.00062  -0.00062   0.35490
   D42        3.07254   0.00000   0.00000  -0.00031  -0.00031   3.07223
   D43       -2.90471  -0.00001   0.00000  -0.00029  -0.00029  -2.90500
   D44       -0.18769   0.00001   0.00000   0.00002   0.00002  -0.18767
   D45       -1.20029   0.00003   0.00000   0.00045   0.00045  -1.19984
   D46        0.90322  -0.00006   0.00000  -0.00085  -0.00085   0.90237
   D47        2.97919   0.00003   0.00000   0.00050   0.00050   2.97969
   D48        1.51487   0.00003   0.00000   0.00064   0.00064   1.51550
   D49       -2.66480  -0.00006   0.00000  -0.00067  -0.00067  -2.66547
   D50       -0.58884   0.00004   0.00000   0.00068   0.00068  -0.58815
         Item               Value     Threshold  Converged?
 Maximum Force            0.000789     0.000002     NO 
 RMS     Force            0.000175     0.000001     NO 
 Maximum Displacement     0.001214     0.000006     NO 
 RMS     Displacement     0.000454     0.000004     NO 
 Predicted change in Energy=-4.593016D-06
 GradGradGradGradGradGradGradGradGradGradGradGradGradGradGradGradGradGrad

 Leave Link  103 at Sun Feb 12 17:43:41 2006, MaxMem=   16777216 cpu:       0.1
 (Enter /usr/local/g98/l202.exe)
                          Input orientation:                          
 ---------------------------------------------------------------------
 Center     Atomic     Atomic              Coordinates (Angstroms)
 Number     Number      Type              X           Y           Z
 ---------------------------------------------------------------------
    1          6             0        3.164193   -0.942473   -0.371017
    2          1             0        3.180828   -1.008050   -1.453326
    3          1             0        3.877294   -0.182139   -0.066618
    4          1             0        3.466352   -1.887292    0.056534
    5          6             0        1.793682   -0.578685    0.160426
    6          8             0        1.356959   -1.044536    1.174469
    7          7             0        1.090772    0.303640   -0.604806
    8          1             0        1.583216    0.729474   -1.358104
    9          6             0       -0.094232    1.027110   -0.131691
   10          6             0       -0.553589    1.932872   -1.284920
   11          1             0        0.210499    2.670873   -1.512986
   12          1             0       -0.758725    1.355313   -2.179697
   13          1             0       -1.455936    2.458643   -1.001445
   14          6             0        0.222093    1.873624    1.105632
   15          1             0       -0.650948    2.433133    1.408876
   16          1             0        0.530564    1.250598    1.932752
   17          1             0        1.022600    2.568975    0.869817
   18          6             0       -1.269012    0.078309    0.171654
   19          8             0       -2.126857    0.412301    0.942430
   20          7             0       -1.346291   -1.051240   -0.562341
   21          1             0       -0.518065   -1.359120   -1.013531
   22          6             0       -2.369256   -2.036220   -0.282359
   23          1             0       -2.203204   -2.532559    0.667836
   24          1             0       -3.336672   -1.557433   -0.254578
   25          1             0       -2.364845   -2.774990   -1.073497
 ---------------------------------------------------------------------
                    Distance matrix (angstroms):
                    1          2          3          4          5
     1  C    0.000000
     2  H    1.084422   0.000000
     3  H    1.085946   1.757882   0.000000
     4  H    1.080178   1.770386   1.758291   0.000000
     5  C    1.514289   2.170881   2.133128   2.126281   0.000000
     6  O    2.380134   3.198927   2.938727   2.531710   1.198343
     7  N    2.430334   2.609377   2.879293   3.298626   1.363143
     8  H    2.503844   2.362292   2.785995   3.520635   2.015319
     9  C    3.814953   4.076103   4.152052   4.605098   2.495622
    10  C    4.787977   4.756391   5.058681   5.705531   3.729159
    11  H    4.804650   4.728730   4.865906   5.817288   3.983265
    12  H    4.892896   4.651148   5.321798   5.776374   3.966271
    13  H    5.771535   5.807042   6.024198   6.650969   4.597317
    14  C    4.332071   4.858644   4.354403   5.076447   3.062209
    15  H    5.396112   5.892067   5.433388   6.119400   4.075033
    16  H    4.129517   4.857048   4.153410   4.688859   2.843041
    17  H    4.296085   4.780172   4.073673   5.147006   3.317464
    18  C    4.581462   4.860228   5.158398   5.128402   3.132389
    19  O    5.617452   5.994044   6.117300   6.112032   4.118763
    20  N    4.515850   4.614166   5.318545   4.923771   3.256552
    21  H    3.761043   3.741455   4.647699   4.159277   2.707661
    22  C    5.641205   5.764697   6.519474   5.847337   4.432890
    23  H    5.693552   5.984251   6.560209   5.738809   4.477743
    24  H    6.530925   6.649559   7.346296   6.818119   5.239343
    25  H    5.867014   5.832738   6.833811   6.005650   4.862064
                    6          7          8          9         10
     6  O    0.000000
     7  N    2.248166   0.000000
     8  H    3.100360   0.995638   0.000000
     9  C    2.846705   1.466793   2.099168   0.000000
    10  C    4.308567   2.412650   2.453458   1.536668   0.000000
    11  H    4.726631   2.683927   2.382723   2.168592   1.086504
    12  H    4.635281   2.647063   2.559565   2.177980   1.084565
    13  H    4.991917   3.359625   3.514779   2.158702   1.082138
    14  C    3.131823   2.478921   3.038376   1.532193   2.513947
    15  H    4.022539   3.409288   3.943364   2.158745   2.741583
    16  H    2.554518   2.765820   3.494192   2.168465   3.463278
    17  H    3.641712   2.703868   2.943075   2.151204   2.744429
    18  C    3.026903   2.494443   3.301421   1.540244   2.464314
    19  O    3.783278   3.571958   4.376951   2.379767   3.122242
    20  N    3.213116   2.788688   3.519402   2.464275   3.171029
    21  H    2.898624   2.349508   2.982673   2.579026   3.303351
    22  C    4.121949   4.189357   4.942502   3.818695   4.478333
    23  H    3.891741   4.529230   5.392798   4.214054   5.145344
    24  H    4.933094   4.815446   5.536516   4.148299   4.581417
    25  H    4.679706   4.651765   5.286724   4.527543   5.048694
                   11         12         13         14         15
    11  H    0.000000
    12  H    1.764822   0.000000
    13  H    1.756053   1.758328   0.000000
    14  C    2.737316   3.467570   2.756411   0.000000
    15  H    3.055469   3.748490   2.541320   1.080374   0.000000
    16  H    3.740686   4.311087   3.743670   1.080483   1.751800
    17  H    2.519453   3.734385   3.107561   1.086247   1.763463
    18  C    3.427587   2.723965   2.660280   2.513736   2.730919
    19  O    4.073506   3.536770   2.901086   2.771221   2.545514
    20  N    4.145051   2.958475   3.538942   3.714404   4.063257
    21  H    4.125664   2.964121   3.931293   3.935648   4.501878
    22  C    5.506932   4.206685   4.642739   4.891676   5.078186
    23  H    6.136583   5.030956   5.315732   5.048582   5.255163
    24  H    5.660794   4.340045   4.497093   5.127098   5.089677
    25  H    6.040113   4.567571   5.312458   5.748953   6.018651
                   16         17         18         19         20
    16  H    0.000000
    17  H    1.763532   0.000000
    18  C    2.777445   3.455768   0.000000
    19  O    2.957257   3.817800   1.200644   0.000000
    20  N    3.878986   4.557267   1.349296   2.239547   0.000000
    21  H    4.073185   4.620669   2.008678   3.090620   0.992130
    22  C    4.911094   5.834382   2.426499   2.748476   1.447423
    23  H    4.835885   6.039226   2.817009   2.958620   2.107591
    24  H    5.255946   6.106944   2.670682   2.603140   2.076672
    25  H    5.798818   6.618853   3.300388   3.778813   2.066409
                   21         22         23         24         25
    21  H    0.000000
    22  C    2.102376   0.000000
    23  H    2.653987   1.084803   0.000000
    24  H    2.925728   1.079770   1.756836   0.000000
    25  H    2.327848   1.082451   1.765543   1.759978   0.000000
 Stoichiometry    C7H14N2O2
 Framework group  C1[X(C7H14N2O2)]
 Deg. of freedom   69
 Full point group                 C1      NOp   1
 Largest Abelian subgroup         C1      NOp   1
 Largest concise Abelian subgroup C1      NOp   1
                         Standard orientation:                         
 ---------------------------------------------------------------------
 Center     Atomic     Atomic              Coordinates (Angstroms)
 Number     Number      Type              X           Y           Z
 ---------------------------------------------------------------------
    1          6             0        3.164212   -0.942487   -0.370942
    2          1             0        3.180848   -1.008065   -1.453251
    3          1             0        3.877312   -0.182153   -0.066543
    4          1             0        3.466373   -1.887306    0.056609
    5          6             0        1.793701   -0.578702    0.160501
    6          8             0        1.356978   -1.044553    1.174544
    7          7             0        1.090790    0.303623   -0.604731
    8          1             0        1.583233    0.729458   -1.358030
    9          6             0       -0.094215    1.027092   -0.131616
   10          6             0       -0.553573    1.932853   -1.284845
   11          1             0        0.210515    2.670855   -1.512911
   12          1             0       -0.758708    1.355294   -2.179623
   13          1             0       -1.455920    2.458623   -1.001370
   14          6             0        0.222110    1.873606    1.105707
   15          1             0       -0.650932    2.433114    1.408951
   16          1             0        0.530581    1.250581    1.932827
   17          1             0        1.022616    2.568958    0.869892
   18          6             0       -1.268994    0.078289    0.171729
   19          8             0       -2.126839    0.412281    0.942505
   20          7             0       -1.346272   -1.051260   -0.562266
   21          1             0       -0.518045   -1.359139   -1.013456
   22          6             0       -2.369235   -2.036241   -0.282284
   23          1             0       -2.203183   -2.532580    0.667911
   24          1             0       -3.336652   -1.557455   -0.254504
   25          1             0       -2.364823   -2.775010   -1.073422
 ---------------------------------------------------------------------
 Rotational constants (GHZ):      1.4083657      0.8940221      0.7075696
 Isotopes: C-12,H-1,H-1,H-1,C-12,O-16,N-14,H-1,C-12,C-12,H-1,H-1,H-1,C-12,H-1,H-1
 ,H-1,C-12,O-16,N-14,H-1,C-12,H-1,H-1,H-1
 Leave Link  202 at Sun Feb 12 17:43:41 2006, MaxMem=   16777216 cpu:       0.0
 (Enter /usr/local/g98/l301.exe)
 Standard basis: 6-31G(d) (6D, 7F)
 There are   193 symmetry adapted basis functions of A   symmetry.
 Crude estimate of integral set expansion from redundant integrals=1.000.
 Integral buffers will be    262144 words long.
 Raffenetti 1 integral format.
 Two-electron integral symmetry is turned on.
   193 basis functions      364 primitive gaussians
    43 alpha electrons       43 beta electrons
       nuclear repulsion energy       680.0272398277 Hartrees.
 Leave Link  301 at Sun Feb 12 17:43:41 2006, MaxMem=   16777216 cpu:       0.0
 (Enter /usr/local/g98/l302.exe)
 One-electron integrals computed using PRISM.
 NBasis=   193 RedAO= T  NBF=   193
 NBsUse=   193 1.00D-04 NBFU=   193
 Leave Link  302 at Sun Feb 12 17:43:42 2006, MaxMem=   16777216 cpu:       0.8
 (Enter /usr/local/g98/l303.exe)
 DipDrv:  MaxL=1.
 Leave Link  303 at Sun Feb 12 17:43:42 2006, MaxMem=   16777216 cpu:       0.3
 (Enter /usr/local/g98/l401.exe)
 Initial guess read from the read-write file:
 Guess basis functions will be translated to current atomic coordinates.
 Leave Link  401 at Sun Feb 12 17:43:42 2006, MaxMem=   16777216 cpu:       0.1
 (Enter /usr/local/g98/l502.exe)
 IExCor=   0 DFT=F Ex=HF Corr=None ScaHFX= 1.0000
 ScaDFX=  0.0000  0.0000  0.0000  0.0000
 IRadAn=      0 IRanWt=     -1 IRanGd=            0 ICorTp=0
 Using DIIS extrapolation.
 Closed shell SCF:
 Requested convergence on RMS density matrix=1.00D-08 within  64 cycles.
 Requested convergence on MAX density matrix=1.00D-06.
 Integral symmetry usage will be decided dynamically.
 IEnd=    127088 IEndB=    127088 NGot=  16777216 MDV=  16691795
 LenX=  16691795
 Fock matrices will be formed incrementally for  20 cycles.

 Cycle   1  Pass 1  IDiag 1:
 Petite list used in FoFDir.
 MinBra= 0 MaxBra= 2 Meth= 1.
 IRaf=       0 NMat=   1 IRICut=       1 DoRegI=T DoRafI=F ISym2E= 1 JSym2E=1.
 E=-0.121191690503462D+04
 DIIS: error= 5.88D-05 at cycle   1.
 RMSDP=8.29D-06 MaxDP=1.44D-04

 Cycle   2  Pass 1  IDiag 1:
 RMSU=  8.29D-06    CP:  1.00D+00
 E=-0.121191690678554D+04 Delta-E=       -0.000001750927
 DIIS: error= 1.82D-05 at cycle   2.
 Coeff: 0.524D-01-0.105D+01
 RMSDP=2.41D-06 MaxDP=3.90D-05

 Cycle   3  Pass 1  IDiag 1:
 RMSU=  2.08D-06    CP:  1.00D+00  1.15D+00
 E=-0.121191690693820D+04 Delta-E=       -0.000000152657
 DIIS: error= 1.14D-05 at cycle   3.
 Coeff: 0.907D-01-0.235D+00-0.856D+00
 RMSDP=9.34D-07 MaxDP=1.97D-05

 Cycle   4  Pass 1  IDiag 1:
 RMSU=  7.52D-07    CP:  1.00D+00  1.21D+00  1.09D+00
 E=-0.121191690696254D+04 Delta-E=       -0.000000024344
 DIIS: error= 2.25D-06 at cycle   4.
 Coeff: 0.376D-02 0.364D-01-0.545D-01-0.986D+00
 RMSDP=3.50D-07 MaxDP=6.05D-06

 Cycle   5  Pass 1  IDiag 1:
 RMSU=  2.04D-07    CP:  1.00D+00  1.22D+00  1.21D+00  1.20D+00
 E=-0.121191690696476D+04 Delta-E=       -0.000000002217
 DIIS: error= 1.58D-06 at cycle   5.
 Coeff:-0.114D-01 0.422D-01 0.114D+00-0.282D+00-0.863D+00
 RMSDP=1.58D-07 MaxDP=3.47D-06

 Cycle   6  Pass 1  IDiag 1:
 RMSU=  8.77D-08    CP:  1.00D+00  1.22D+00  1.24D+00  1.35D+00  1.02D+00
 E=-0.121191690696509D+04 Delta-E=       -0.000000000334
 DIIS: error= 4.34D-07 at cycle   6.
 Coeff:-0.105D-02-0.218D-02 0.150D-01 0.760D-01 0.150D-01-0.110D+01
 RMSDP=6.26D-08 MaxDP=1.21D-06

 Cycle   7  Pass 1  IDiag 1:
 RMSU=  2.78D-08    CP:  1.00D+00  1.22D+00  1.25D+00  1.39D+00  1.15D+00
                    CP:  1.40D+00
 E=-0.121191690696520D+04 Delta-E=       -0.000000000100
 DIIS: error= 2.10D-07 at cycle   7.
 Coeff: 0.144D-02-0.639D-02-0.130D-01 0.425D-01 0.150D+00-0.179D+00
 Coeff:-0.995D+00
 RMSDP=2.72D-08 MaxDP=5.78D-07

 Cycle   8  Pass 1  IDiag 1:
 RMSU=  1.12D-08    CP:  1.00D+00  1.22D+00  1.25D+00  1.39D+00  1.17D+00
                    CP:  1.65D+00  1.26D+00
 E=-0.121191690696505D+04 Delta-E=        0.000000000148
 DIIS: error= 7.77D-08 at cycle   8.
 Coeff: 0.141D-03 0.434D-03-0.194D-02-0.181D-01 0.490D-02 0.185D+00
 Coeff: 0.315D-01-0.120D+01
 RMSDP=1.31D-08 MaxDP=2.98D-07

 Cycle   9  Pass 1  IDiag 1:
 RMSU=  3.68D-09    CP:  1.00D+00  1.22D+00  1.25D+00  1.40D+00  1.18D+00
                    CP:  1.74D+00  1.53D+00  1.48D+00
 E=-0.121191690696477D+04 Delta-E=        0.000000000278
 DIIS: error= 2.64D-08 at cycle   9.
 Coeff:-0.141D-03 0.566D-03 0.140D-02-0.382D-02-0.121D-01 0.464D-02
 Coeff: 0.851D-01 0.344D-01-0.111D+01
 RMSDP=3.00D-09 MaxDP=7.76D-08

 SCF Done:  E(RHF) =  -531.889667137     A.U. after    9 cycles
             Convg  =    0.3005D-08             -V/T =  2.0014
             S**2   =   0.0000
 KE= 5.311466494617D+02 PE=-2.606229700987D+03 EE= 8.631661445610D+02
 Leave Link  502 at Sun Feb 12 17:46:50 2006, MaxMem=   16777216 cpu:     187.0
 (Enter /usr/local/g98/l701.exe)
 Compute integral first derivatives.
 ... and contract with generalized density number  0.
 Leave Link  701 at Sun Feb 12 17:46:51 2006, MaxMem=   16777216 cpu:       0.9
 (Enter /usr/local/g98/l702.exe)
 L702 exits ... SP integral derivatives will be done elsewhere.
 Leave Link  702 at Sun Feb 12 17:46:51 2006, MaxMem=   16777216 cpu:       0.0
 (Enter /usr/local/g98/l703.exe)
 Compute integral first derivatives.
 Integral derivatives from FoFDir, PRISM(SPDF).
 Symmetry not used in FoFDir.
 MinBra= 0 MaxBra= 2 Meth= 1.
 IRaf=       0 NMat=   1 IRICut=       1 DoRegI=T DoRafI=F ISym2E= 0 JSym2E=0.
 Leave Link  703 at Sun Feb 12 17:48:40 2006, MaxMem=   16777216 cpu:     108.5
 (Enter /usr/local/g98/l716.exe)
 ***** Axes restored to original set *****
 -------------------------------------------------------------------
 Center     Atomic                   Forces (Hartrees/Bohr)
 Number     Number              X              Y              Z
 -------------------------------------------------------------------
    1          6          -0.000000133   -0.000000112   -0.000000101
    2          1           0.000000044   -0.000000027   -0.000000172
    3          1           0.000000251    0.000000220    0.000000115
    4          1           0.000000139   -0.000000198    0.000000060
    5          6           0.000001008   -0.000001306    0.000001106
    6          8          -0.000000085   -0.000000119    0.000000253
    7          7          -0.000002135    0.000000583    0.000000420
    8          1           0.000001065    0.000000871   -0.000001642
    9          6          -0.000000206   -0.000000122   -0.000000651
   10          6          -0.000000406   -0.000000435    0.000000384
   11          1           0.000000501    0.000000580   -0.000000184
   12          1          -0.000000072   -0.000000130   -0.000000265
   13          1          -0.000000004    0.000000028   -0.000000005
   14          6           0.000000531    0.000000151    0.000000522
[...]
    15  H    3.055470   3.748491   2.541321   1.080374   0.000000
    16  H    3.740687   4.311088   3.743671   1.080483   1.751800
    17  H    2.519454   3.734387   3.107562   1.086247   1.763463
    18  C    3.427589   2.723967   2.660281   2.513737   2.730920
    19  O    4.073508   3.536772   2.901088   2.771223   2.545515
    20  N    4.145053   2.958477   3.538943   3.714405   4.063258
    21  H    4.125665   2.964119   3.931291   3.935650   4.501879
    22  C    5.506934   4.206687   4.642740   4.891678   5.078188
    23  H    6.136585   5.030957   5.315731   5.048583   5.255163
    24  H    5.660797   4.340046   4.497094   5.127104   5.089682
    25  H    6.040117   4.567574   5.312462   5.748956   6.018655
                   16         17         18         19         20
    16  H    0.000000
    17  H    1.763532   0.000000
    18  C    2.777446   3.455770   0.000000
    19  O    2.957257   3.817801   1.200644   0.000000
    20  N    3.878988   4.557268   1.349297   2.239548   0.000000
    21  H    4.073188   4.620671   2.008679   3.090621   0.992130
    22  C    4.911096   5.834384   2.426499   2.748477   1.447422
    23  H    4.835886   6.039228   2.817009   2.958618   2.107591
    24  H    5.255952   6.106948   2.670686   2.603144   2.076673
    25  H    5.798820   6.618855   3.300390   3.778816   2.066410
                   21         22         23         24         25
    21  H    0.000000
    22  C    2.102376   0.000000
    23  H    2.653990   1.084803   0.000000
    24  H    2.925728   1.079771   1.756837   0.000000
    25  H    2.327847   1.082453   1.765544   1.759980   0.000000
 Stoichiometry    C7H14N2O2
 Framework group  C1[X(C7H14N2O2)]
 Deg. of freedom   69
 Full point group                 C1      NOp   1
 Largest Abelian subgroup         C1      NOp   1
 Largest concise Abelian subgroup C1      NOp   1
                         Standard orientation:                         
 ---------------------------------------------------------------------
 Center     Atomic     Atomic              Coordinates (Angstroms)
 Number     Number      Type              X           Y           Z
 ---------------------------------------------------------------------
    1          6             0        3.164213   -0.942487   -0.370941
    2          1             0        3.180849   -1.008063   -1.453251
    3          1             0        3.877314   -0.182153   -0.066542
    4          1             0        3.466374   -1.887307    0.056608
    5          6             0        1.793702   -0.578702    0.160502
    6          8             0        1.356980   -1.044552    1.174545
    7          7             0        1.090789    0.303623   -0.604732
    8          1             0        1.583234    0.729459   -1.358031
    9          6             0       -0.094215    1.027093   -0.131617
   10          6             0       -0.553574    1.932854   -1.284846
   11          1             0        0.210513    2.670857   -1.512912
   12          1             0       -0.758709    1.355295   -2.179624
   13          1             0       -1.455922    2.458623   -1.001371
   14          6             0        0.222110    1.873608    1.105707
   15          1             0       -0.650933    2.433115    1.408952
   16          1             0        0.530582    1.250582    1.932827
   17          1             0        1.022615    2.568960    0.869892
   18          6             0       -1.268994    0.078289    0.171729
   19          8             0       -2.126839    0.412279    0.942507
   20          7             0       -1.346272   -1.051261   -0.562266
   21          1             0       -0.518047   -1.359138   -1.013460
   22          6             0       -2.369235   -2.036242   -0.282284
   23          1             0       -2.203184   -2.532579    0.667913
   24          1             0       -3.336654   -1.557458   -0.254508
   25          1             0       -2.364819   -2.775015   -1.073422
 ---------------------------------------------------------------------
 Rotational constants (GHZ):      1.4083642      0.8940215      0.7075692
 Isotopes: C-12,H-1,H-1,H-1,C-12,O-16,N-14,H-1,C-12,C-12,H-1,H-1,H-1,C-12,H-1,H-1
 ,H-1,C-12,O-16,N-14,H-1,C-12,H-1,H-1,H-1
 Leave Link  202 at Sun Feb 12 19:14:54 2006, MaxMem=   16777216 cpu:       0.0
 (Enter /usr/local/g98/l601.exe)
 Copying SCF densities to generalized density rwf, ISCF=0 IROHF=0.

 **********************************************************************

            Population analysis using the SCF density.

 **********************************************************************

 Alpha  occ. eigenvalues --  -20.53545 -20.51349 -15.59535 -15.57213 -11.35880
 Alpha  occ. eigenvalues --  -11.33509 -11.28910 -11.24664 -11.24299 -11.23278
 Alpha  occ. eigenvalues --  -11.20736  -1.40464  -1.38281  -1.25265  -1.21811
 Alpha  occ. eigenvalues --   -1.07688  -1.00390  -0.95280  -0.94760  -0.84889
 Alpha  occ. eigenvalues --   -0.80717  -0.77065  -0.71285  -0.69074  -0.65449
 Alpha  occ. eigenvalues --   -0.62846  -0.62377  -0.62037  -0.59984  -0.59458
 Alpha  occ. eigenvalues --   -0.58297  -0.57227  -0.55857  -0.54271  -0.54073
 Alpha  occ. eigenvalues --   -0.51993  -0.51632  -0.51082  -0.49122  -0.42956
 Alpha  occ. eigenvalues --   -0.42157  -0.38972  -0.37861
 Alpha virt. eigenvalues --    0.18932   0.20085   0.20982   0.24983   0.25291
 Alpha virt. eigenvalues --    0.27921   0.28841   0.29087   0.30037   0.30241
 Alpha virt. eigenvalues --    0.32294   0.32687   0.33018   0.34439   0.35765
 Alpha virt. eigenvalues --    0.36091   0.38089   0.38631   0.40225   0.42915
 Alpha virt. eigenvalues --    0.44709   0.47657   0.51633   0.53987   0.58040
 Alpha virt. eigenvalues --    0.64065   0.69767   0.70910   0.72965   0.74248
 Alpha virt. eigenvalues --    0.75425   0.76386   0.76948   0.79529   0.81594
 Alpha virt. eigenvalues --    0.83175   0.86673   0.88105   0.90367   0.93342
 Alpha virt. eigenvalues --    0.94138   0.96693   0.97854   0.98730   1.01656
 Alpha virt. eigenvalues --    1.02108   1.02672   1.03551   1.05576   1.09487
 Alpha virt. eigenvalues --    1.11325   1.12712   1.13242   1.14365   1.15483
 Alpha virt. eigenvalues --    1.15833   1.17826   1.18177   1.18430   1.19949
 Alpha virt. eigenvalues --    1.21253   1.21661   1.23016   1.24007   1.25152
 Alpha virt. eigenvalues --    1.26129   1.27316   1.28502   1.32096   1.36871
 Alpha virt. eigenvalues --    1.38719   1.39323   1.42319   1.46280   1.51420
 Alpha virt. eigenvalues --    1.55835   1.58823   1.59387   1.60692   1.63296
 Alpha virt. eigenvalues --    1.67716   1.71714   1.73865   1.76102   1.79203
 Alpha virt. eigenvalues --    1.90720   1.93296   1.96609   1.99166   2.01764
 Alpha virt. eigenvalues --    2.05392   2.08855   2.09710   2.11939   2.14141
 Alpha virt. eigenvalues --    2.15425   2.17642   2.19398   2.20818   2.21951
 Alpha virt. eigenvalues --    2.23593   2.26193   2.30346   2.30772   2.35050
 Alpha virt. eigenvalues --    2.37619   2.38575   2.40337   2.41250   2.44239
 Alpha virt. eigenvalues --    2.50437   2.53695   2.56077   2.57149   2.58085
 Alpha virt. eigenvalues --    2.59893   2.62095   2.64971   2.69147   2.70551
 Alpha virt. eigenvalues --    2.73271   2.74281   2.78343   2.79352   2.83654
 Alpha virt. eigenvalues --    2.88177   2.94484   2.97662   3.02110   3.06351
 Alpha virt. eigenvalues --    3.09875   3.10649   3.13737   3.27112   3.34326
 Alpha virt. eigenvalues --    3.38619   3.41599   3.53724   3.60090   4.39718
 Alpha virt. eigenvalues --    4.45192   4.48690   4.59942   4.65888   4.66883
 Alpha virt. eigenvalues --    4.74090   4.77373   4.86168   4.99051   5.19759
          Condensed to atoms (all electrons):
              1          2          3          4          5          6
  1  C    5.269574   0.376342   0.375528   0.384093   0.372953  -0.070135
  2  H    0.376342   0.521529  -0.024596  -0.020930  -0.037106   0.001966
  3  H    0.375528  -0.024596   0.491223  -0.017042  -0.027153   0.000297
  4  H    0.384093  -0.020930  -0.017042   0.459659  -0.031846   0.003251
  5  C    0.372953  -0.037106  -0.027153  -0.031846   4.165533   0.606668
  6  O   -0.070135   0.001966   0.000297   0.003251   0.606668   8.142927
  7  N   -0.122400   0.005151   0.000798   0.004200   0.257739  -0.106493
  8  H    0.000212   0.000245   0.000075   0.000058  -0.021082   0.002674
  9  C    0.003559   0.000184  -0.000245  -0.000078  -0.028370   0.008507
 10  C   -0.000116  -0.000018   0.000003   0.000002   0.003579   0.000177
 11  H   -0.000007  -0.000003   0.000000   0.000000  -0.000217  -0.000001
 12  H   -0.000010   0.000002   0.000000   0.000000  -0.000130   0.000000
 13  H    0.000002   0.000000   0.000000   0.000000  -0.000008   0.000003
 14  C   -0.000466   0.000011   0.000103  -0.000001  -0.003594  -0.006267
 15  H    0.000006   0.000000  -0.000001   0.000000   0.000195   0.000065
 16  H    0.000184  -0.000003  -0.000026   0.000001   0.002479   0.005489
 17  H   -0.000045  -0.000003   0.000012   0.000001  -0.000609   0.000003
 18  C    0.000014  -0.000028   0.000001   0.000004  -0.003738   0.005973
 19  O   -0.000001   0.000000   0.000000   0.000000  -0.000123  -0.000271
 20  N   -0.000037   0.000009  -0.000001   0.000006   0.003044  -0.002897
 21  H   -0.000115   0.000029   0.000003  -0.000005   0.001922  -0.000261
 22  C    0.000000   0.000000   0.000000   0.000000  -0.000105  -0.000088
 23  H    0.000001   0.000000   0.000000   0.000000  -0.000039   0.000205
 24  H    0.000000   0.000000   0.000000   0.000000   0.000003   0.000000
 25  H    0.000000   0.000000   0.000000   0.000000   0.000007  -0.000005
              7          8          9         10         11         12
  1  C   -0.122400   0.000212   0.003559  -0.000116  -0.000007  -0.000010
  2  H    0.005151   0.000245   0.000184  -0.000018  -0.000003   0.000002
  3  H    0.000798   0.000075  -0.000245   0.000003   0.000000   0.000000
  4  H    0.004200   0.000058  -0.000078   0.000002   0.000000   0.000000
  5  C    0.257739  -0.021082  -0.028370   0.003579  -0.000217  -0.000130
  6  O   -0.106493   0.002674   0.008507   0.000177  -0.000001   0.000000
  7  N    7.504013   0.324658   0.150896  -0.062681  -0.003385  -0.000850
  8  H    0.324658   0.333175  -0.026301  -0.005250   0.003089   0.000488
  9  C    0.150896  -0.026301   5.058886   0.365561  -0.036740  -0.035256
 10  C   -0.062681  -0.005250   0.365561   5.165150   0.385482   0.387364
 11  H   -0.003385   0.003089  -0.036740   0.385482   0.531331  -0.027390
 12  H   -0.000850   0.000488  -0.035256   0.387364  -0.027390   0.513301
 13  H    0.004312   0.000071  -0.034305   0.393250  -0.021493  -0.020317
 14  C   -0.070295   0.001534   0.376642  -0.064767  -0.005073   0.005029
 15  H    0.004363  -0.000100  -0.028930  -0.002880   0.000183  -0.000053
 16  H   -0.004311  -0.000183  -0.027526   0.003957  -0.000053  -0.000094
 17  H   -0.001015   0.000689  -0.043662  -0.004933   0.002327  -0.000066
 18  C   -0.055097   0.003269   0.388841  -0.057794   0.005493  -0.006933
 19  O    0.002130  -0.000052  -0.077239  -0.001821  -0.000074  -0.000027
 20  N   -0.000922  -0.000342  -0.121418   0.000404  -0.000104   0.003836
 21  H    0.006821  -0.000085  -0.004132   0.000445  -0.000025   0.000234
 22  C   -0.000064   0.000013   0.004626  -0.000237   0.000004  -0.000058
 23  H   -0.000021   0.000000  -0.000113  -0.000004   0.000000   0.000004
 24  H   -0.000018   0.000000   0.000079   0.000010   0.000000  -0.000018
 25  H   -0.000011   0.000000   0.000027   0.000001   0.000000  -0.000005
             13         14         15         16         17         18
  1  C    0.000002  -0.000466   0.000006   0.000184  -0.000045   0.000014
  2  H    0.000000   0.000011   0.000000  -0.000003  -0.000003  -0.000028
  3  H    0.000000   0.000103  -0.000001  -0.000026   0.000012   0.000001
  4  H    0.000000  -0.000001   0.000000   0.000001   0.000001   0.000004
  5  C   -0.000008  -0.003594   0.000195   0.002479  -0.000609  -0.003738
  6  O    0.000003  -0.006267   0.000065   0.005489   0.000003   0.005973
  7  N    0.004312  -0.070295   0.004363  -0.004311  -0.001015  -0.055097
  8  H    0.000071   0.001534  -0.000100  -0.000183   0.000689   0.003269
  9  C   -0.034305   0.376642  -0.028930  -0.027526  -0.043662   0.388841
 10  C    0.393250  -0.064767  -0.002880   0.003957  -0.004933  -0.057794
 11  H   -0.021493  -0.005073   0.000183  -0.000053   0.002327   0.005493
 12  H   -0.020317   0.005029  -0.000053  -0.000094  -0.000066  -0.006933
 13  H    0.470554  -0.002307   0.001496  -0.000019  -0.000021  -0.003142
 14  C   -0.002307   5.137023   0.386771   0.392265   0.385360  -0.065031
 15  H    0.001496   0.386771   0.485984  -0.019036  -0.025807  -0.004871
 16  H   -0.000019   0.392265  -0.019036   0.462693  -0.024949  -0.004353
 17  H   -0.000021   0.385360  -0.025807  -0.024949   0.562194   0.006060
 18  C   -0.003142  -0.065031  -0.004871  -0.004353   0.006060   4.148225
 19  O    0.003186   0.002231   0.004519   0.000693   0.000224   0.596028
 20  N    0.000188   0.003095   0.000094   0.000057  -0.000041   0.294134
 21  H   -0.000011   0.000118  -0.000020  -0.000007  -0.000008  -0.019579
 22  C   -0.000011  -0.000095  -0.000006  -0.000010   0.000002  -0.033064
 23  H   -0.000001   0.000020  -0.000001  -0.000001   0.000000  -0.002980
 24  H    0.000007  -0.000014   0.000001   0.000000   0.000000  -0.003484
 25  H    0.000000   0.000000   0.000000   0.000000   0.000000   0.004474
             19         20         21         22         23         24
  1  C   -0.000001  -0.000037  -0.000115   0.000000   0.000001   0.000000
  2  H    0.000000   0.000009   0.000029   0.000000   0.000000   0.000000
  3  H    0.000000  -0.000001   0.000003   0.000000   0.000000   0.000000
  4  H    0.000000   0.000006  -0.000005   0.000000   0.000000   0.000000
  5  C   -0.000123   0.003044   0.001922  -0.000105  -0.000039   0.000003
  6  O   -0.000271  -0.002897  -0.000261  -0.000088   0.000205   0.000000
  7  N    0.002130  -0.000922   0.006821  -0.000064  -0.000021  -0.000018
  8  H   -0.000052  -0.000342  -0.000085   0.000013   0.000000   0.000000
  9  C   -0.077239  -0.121418  -0.004132   0.004626  -0.000113   0.000079
 10  C   -0.001821   0.000404   0.000445  -0.000237  -0.000004   0.000010
 11  H   -0.000074  -0.000104  -0.000025   0.000004   0.000000   0.000000
 12  H   -0.000027   0.003836   0.000234  -0.000058   0.000004  -0.000018
 13  H    0.003186   0.000188  -0.000011  -0.000011  -0.000001   0.000007
 14  C    0.002231   0.003095   0.000118  -0.000095   0.000020  -0.000014
 15  H    0.004519   0.000094  -0.000020  -0.000006  -0.000001   0.000001
 16  H    0.000693   0.000057  -0.000007  -0.000010  -0.000001   0.000000
 17  H    0.000224  -0.000041  -0.000008   0.000002   0.000000   0.000000
 18  C    0.596028   0.294134  -0.019579  -0.033064  -0.002980  -0.003484
 19  O    8.184688  -0.102485   0.002625   0.005935   0.001353   0.004217
 20  N   -0.102485   7.299636   0.324144   0.212019  -0.047889  -0.038860
 21  H    0.002625   0.324144   0.318511  -0.024053   0.000995   0.002680
 22  C    0.005935   0.212019  -0.024053   4.905120   0.405961   0.402761
 23  H    0.001353  -0.047889   0.000995   0.405961   0.524277  -0.032134
 24  H    0.004217  -0.038860   0.002680   0.402761  -0.032134   0.490278
 25  H    0.000371  -0.039492  -0.004108   0.397675  -0.032735  -0.025279
             25
  1  C    0.000000
  2  H    0.000000
  3  H    0.000000
  4  H    0.000000
  5  C    0.000007
  6  O   -0.000005
  7  N   -0.000011
  8  H    0.000000
  9  C    0.000027
 10  C    0.000001
 11  H    0.000000
 12  H   -0.000005
 13  H    0.000000
 14  C    0.000000
 15  H    0.000000
 16  H    0.000000
 17  H    0.000000
 18  C    0.004474
 19  O    0.000371
 20  N   -0.039492
 21  H   -0.004108
 22  C    0.397675
 23  H   -0.032735
 24  H   -0.025279
 25  H    0.536949
 Total atomic charges:
              1
  1  C   -0.589134
  2  H    0.177220
  3  H    0.201022
  4  H    0.218628
  5  C    0.739999
  6  O   -0.591788
  7  N   -0.837518
  8  H    0.383144
  9  C    0.106508
 10  C   -0.504881
 11  H    0.166654
 12  H    0.180950
 13  H    0.208566
 14  C   -0.472292
 15  H    0.198028
 16  H    0.212755
 17  H    0.144287
 18  C    0.807578
 19  O   -0.626105
 20  N   -0.786179
 21  H    0.393882
 22  C   -0.276325
 23  H    0.183103
 24  H    0.199769
 25  H    0.162130
 Sum of Mulliken charges=   0.00000
 Atomic charges with hydrogens summed into heavy atoms:
              1
  1  C    0.007736
  2  H    0.000000
  3  H    0.000000
  4  H    0.000000
  5  C    0.739999
  6  O   -0.591788
  7  N   -0.454374
  8  H    0.000000
  9  C    0.106508
 10  C    0.051289
 11  H    0.000000
 12  H    0.000000
 13  H    0.000000
 14  C    0.082778
 15  H    0.000000
 16  H    0.000000
 17  H    0.000000
 18  C    0.807578
 19  O   -0.626105
 20  N   -0.392297
 21  H    0.000000
 22  C    0.268678
 23  H    0.000000
 24  H    0.000000
 25  H    0.000000
 Sum of Mulliken charges=   0.00000
 Electronic spatial extent (au):  <R**2>=  1858.8137
 Charge=     0.0000 electrons
 Dipole moment (Debye):
    X=     3.5466    Y=     0.3486    Z=    -4.9433  Tot=     6.0939
 Quadrupole moment (Debye-Ang):
   XX=   -65.6739   YY=   -62.7906   ZZ=   -70.5645
   XY=     4.7204   XZ=    -0.4299   YZ=     1.8817
 Octapole moment (Debye-Ang**2):
  XXX=    31.0120  YYY=    -8.3588  ZZZ=    -4.0151  XYY=    -7.2141
  XXY=   -12.0582  XXZ=   -15.2035  XZZ=     3.8201  YZZ=     1.8666
  YYZ=    -5.9819  XYZ=     4.3356
 Hexadecapole moment (Debye-Ang**3):
 XXXX= -1239.3203 YYYY=  -774.6497 ZZZZ=  -350.1192 XXXY=    13.1379
 XXXZ=    14.7198 YYYX=     3.4453 YYYZ=     4.8094 ZZZX=   -11.1402
 ZZZY=     2.9268 XXYY=  -321.9405 XXZZ=  -288.3704 YYZZ=  -190.1064
 XXYZ=    -3.6765 YYXZ=    -4.6097 ZZXY=     9.2576
 N-N= 6.800269605410D+02 E-N=-2.606229123898D+03  KE= 5.311466230973D+02
 Leave Link  601 at Sun Feb 12 19:14:54 2006, MaxMem=   16777216 cpu:       0.4
 (Enter /usr/local/g98/l9999.exe)

 Test job not archived.
 1\1\GINC-LYNX\FOpt\RHF\6-31G(d)\C7H14N2O2\FYD\12-Feb-2006\0\\#P HF/6-3
 1G* OPT=(VTIGHT,CALCFC) FREQ SCF(CONVER=8) TEST\\Optimization used by 
 R.E.D.\\0,1\C,3.1642119713,-0.9424919689,-0.3709414248\H,3.1808479155,
 -1.0080677351,-1.453250758\H,3.8773135054,-0.1821586135,-0.0665415762\
 H,3.4663717681,-1.8873121146,0.0566083025\C,1.7937011013,-0.5787046859
 ,0.1605021036\O,1.3569780817,-1.0445542145,1.1745452671\N,1.0907897763
 ,0.3036213423,-0.6047318153\H,1.5832353494,0.7294569229,-1.3580313578\
 C,-0.094213884,1.0270927997,-0.1316171044\C,-0.5535714271,1.9328546356
 ,-1.2848455523\H,0.2105170112,2.6708566481,-1.5129119999\H,-0.75870720
 78,1.3552958934,-2.1796237864\H,-1.4559183325,2.4586248657,-1.00137053
 39\C,0.2221123692,1.8736073751,1.1057067016\H,-0.6509292385,2.43311590
 42,1.4089517456\H,0.5305834715,1.2505814385,1.9328265772\H,1.022618678
 2,2.5689581756,0.8698917116\C,-1.2689940502,0.0782907411,0.1717291132\
 O,-2.1268385583,0.4122824967,0.9425065493\N,-1.3462733193,-1.051258569
 6,-0.5622659145\H,-0.5180484672,-1.3591370787,-1.013459588\C,-2.369237
 591,-2.036238865,-0.2822841269\H,-2.2031874222,-2.53257579,0.667912538
 5\H,-3.3366560839,-1.5574529128,-0.254507969\H,-2.3648232709,-2.775011
 4607,-1.0734219889\\Version=x86-Linux-G98RevA.11.4\HF=-531.8896671\RMS
 D=2.165e-09\RMSF=1.039e-08\Dipole=1.3953152,0.1371299,-1.9448388\PG=C0
 1 [X(C7H14N2O2)]\\@


       THE DEATH-KNELL OF THE ATOM

 SO THE ATOMS IN TURN, WE NOW CLEARLY DISCERN,
 FLY TO BITS WITH THE UTMOST FACILITY;
 THEY WEND ON THEIR WAY, AND, IN SPLITTING, DISPLAY
 AN ABSOLUTE LACK OF STABILITY.

          SIR WM. RAMSAY, 1905
 Leave Link 9999 at Sun Feb 12 19:14:54 2006, MaxMem=   16777216 cpu:       0.0
 Job cpu time:  0 days  2 hours  9 minutes 31.6 seconds.
 File lengths (MBytes):  RWF=  122 Int=    0 D2E=    0 Chk=    5 Scr=    1
 Normal termination of Gaussian 98.

